
                                 *****************
                                 * O   R   C   A *
                                 *****************

                                            #,                                       
                                            ###                                      
                                            ####                                     
                                            #####                                    
                                            ######                                   
                                           ########,                                 
                                     ,,################,,,,,                         
                               ,,#################################,,                 
                          ,,##########################################,,             
                       ,#########################################, ''#####,          
                    ,#############################################,,   '####,        
                  ,##################################################,,,,####,       
                ,###########''''           ''''###############################       
              ,#####''   ,,,,##########,,,,          '''####'''          '####       
            ,##' ,,,,###########################,,,                        '##       
           ' ,,###''''                  '''############,,,                           
         ,,##''                                '''############,,,,        ,,,,,,###''
      ,#''                                            '''#######################'''  
     '                                                          ''''####''''         
             ,#######,   #######,   ,#######,      ##                                
            ,#'     '#,  ##    ##  ,#'     '#,    #''#        ,####,    ,#,          
            ##       ##  ##   ,#'  ##            #'  '#       #'       ,# #          
            ##       ##  #######   ##           ,######,      #####,      #          
            '#,     ,#'  ##    ##  '#,     ,#' ,#      #,     #,   #      #          
             '#######'   ##     ##  '#######'  #'      '#     '####' #    #          



                #########################################################
                #                        -***-                          #
                #          Department of theory and spectroscopy        #
                #                                                       #
                #                      Frank Neese                      #
                #                                                       #
                #     Directorship, Architecture, Infrastructure        #
                #                    SHARK, DRIVERS                     #
                #        Core code/Algorithms in most modules           #
                #                                                       #
                #        Max Planck Institute fuer Kohlenforschung      #
                #                Kaiser Wilhelm Platz 1                 #
                #                 D-45470 Muelheim/Ruhr                 #
                #                      Germany                          #
                #                                                       #
                #                  All rights reserved                  #
                #                        -***-                          #
                #########################################################


                         Program Version 6.1.1  -  RELEASE   -


 With contributions from (in alphabetic order):
[Max-Planck-Institut fuer Kohlenforschung]                               
  Daniel Aravena         : Magnetic Suceptibility                        
  Michael Atanasov       : Ab Initio Ligand Field Theory (pilot matlab implementation)
  Alexander A. Auer      : GIAO ZORA, VPT2 properties, NMR spectrum      
  Ute Becker             : All parallelization in ORCA, NUMFREQ, NUMCALC 
  Giovanni Bistoni       : ED, misc. LED, open-shell LED, HFLD           
  Dmytro Bykov           : pre 5.0 version of the SCF Hessian            
  Marcos Casanova-Páez   : Triplet and SCS-CIS(D). UHF-(DLPNO)-IP/EA/STEOM-CCSD. UHF-CVS-IP/STEOM-CCSD   
  Vijay G. Chilkuri      : MRCI spin determinant printing, contributions to CSF-ICE 
  Pauline Colinet        : FMM embedding                                 
  Dipayan Datta          : RHF DLPNO-CCSD density                        
  Achintya Kumar Dutta   : EOM-CC, STEOM-CC                              
  Nicolas Foglia         : Exact transition moments, OPA infrastructure, MCD improvements    
  Dmitry Ganyushin       : Spin-Orbit,Spin-Spin,Magnetic field MRCI      
  Miquel Garcia-Rates    : C-PCM and meta-GGA Hessian, CCSD/C-PCM, Gaussian charge scheme 
  Tiago L. C. Gouveia    : GS-ROHF, GS-ROCIS                             
  Yang Guo               : DLPNO-NEVPT2, F12-NEVPT2, CIM, IAO-localization        
  Andreas Hansen         : Spin unrestricted coupled pair/coupled cluster methods 
  Ingolf Harden          : AUTO-CI MPn and infrastructure                
  Benjamin Helmich-Paris : MC-RPA, TRAH-(SCF,CASSCF), AVAS, COSX integrals, SCF dyn. polar., MC-PDFT, srDFT 
  Lee Huntington         : MR-EOM, pCC                                   
  Robert Izsak           : Overlap fitted RIJCOSX, COSX-SCS-MP3, EOM     
  Riya Kayal             : Wick's Theorem for AUTO-CI, AUTO-CI UHF-CCSDT 
  Emily Kempfer          : AUTO-CI RHF CISDT and CCSDT, approximate NEVPT4
  Christian Kollmar      : KDIIS, OOCD, Brueckner-CCSD(T), CCSD density, CASPT2, CASPT2-K, improved NEVPT2 
  Axel Koslowski         : Symmetry handling                             
  Simone Kossmann        : meta-GGA functionals, TD-DFT gradient, OOMP2, (MP2 Hessian; deprecated post 5.0) 
  Lucas Lang             : DCDCAS, Hyperfine gauge corrections, ICE-SOC+SSC
  Marvin Lechner         : AUTO-CI (C++ implementation), FIC-MRCC        
  Spencer Leger          : CASSCF response                               
  Dagmar Lenk            : GEPOL surface, SMD, ORCA-2-JSON               
  Dimitrios Liakos       : Extrapolation schemes; Compound Job, Property file
  Dimitrios Manganas     : Further ROCIS development; embedding schemes. LFT, Crystal Embedding 
  Dimitrios Pantazis     : SARC Basis sets                               
  Anastasios Papadopoulos: AUTO-CI, single reference methods and gradients 
  Taras Petrenko         : pre 6.0 DFT Hessian and TD-DFT gradient,  ECA, NRVS 
  Petra Pikulova         : Analytic Raman intensities                    
  Peter Pinski           : DLPNO-MP2, DLPNO-MP2 Gradient                 
  Shashank Vittal Rao    : ES-AILFT, MagRelax                            
  Christoph Reimann      : Effective Core Potentials                     
  Marius Retegan         : Local ZFS, SOC                                
  Christoph Riplinger    : Optimizer, TS searches, QM/MM, DLPNO-CCSD(T), (RO)-DLPNO pert. Triples 
  Michael Roemelt        : Original ROCIS implementation, recursive CI coupling coefficients
  Masaaki Saitow         : Open-shell DLPNO-CCSD energy and density      
  Barbara Sandhoefer     : DKH picture change effects                    
  Yorick L. A. Schmerwitz: GMF and freeze-and-release deltaSCF, NEB S-IDPP initial path                    
  Kantharuban Sivalingam : CASSCF convergence/infrastructure, NEVPT2, NEVPT3, NEVPT4(SD), FIC-MRCI and CEPA variants
  Bernardo de Souza      : ESD, SOC TD-DFT                               
  Georgi L. Stoychev     : AutoAux, RI-MP2 NMR, DLPNO-MP2 response, X2C  
  Van Anh Tran           : RI-MP2 g-tensors                              
  Willem Van den Heuvel  : Paramagnetic NMR                              
  Zikuan Wang            : NOTCH, Electric field optimization            
  Frank Wennmohs         : Technical directorship and infrastructure     
  Hang Xu                : AUTO-CI-Response properties                   
                                                                         
[FACCTs GmbH]                                                            
  Markus Bursch, Nicolas Foglia, Miquel Garcia-Rates, Ingolf Harden, Hagen Neugebauer, Anastasios Papadopoulos, 
  Christoph Riplinger, Bernardo de Souza, Georgi L. Stoychev                                                    
                                                                 
  APM, various basis sets, CI-OPT, improved COSX, DLPNO-Multilevel,           
  DOCKER, DRACO, updates on ESD, Fragmentator, GOAT, IRC, LR-CPCM, L-BFGS, MBIS, meta-GGA TD-DFT gradient, ML-optimized integration grids, 
  MM, NACMEs, nearIR, NEB, NEB-TS, NL-DFT gradient (VV10), 2- and 3-layer-ONIOM, interface openCOSMO-RS, QMMM,   
  Crystal-QMMM, RESP, rigid body optimization, SF, symmetry and pop. for TD-DFT, various functionals, SOLVATOR                                   
                                                                         
[Other institutions]                                                     
  V. Asgeirsson          : NEB                                           
  Christoph Bannwarth    : sTDA-DFT, sTD-DFT, PBEh-3c, B97-3c, D3        
  Giovanni Bistoni       : ETS/NOCV, ADLD/ADEX, COVALED                  
  Martin Brehm           : Molecular dynamics                            
  Ronald Cardenas        : ETS/NOCV                                      
  Martina Colucci        : COVALED                                       
  Sebastian Ehlert       : rSCAN, r2SCAN, r2SCAN-3c, D4, dhf basis sets  
  Marvin Friede          : D4 for Fr, Ra, Ac-Lr                          
  Lars Goerigk           : TD-DFT with DH, B97 family of functionals     
  Stefan Grimme          : VdW corrections, initial TS optimization, DFT functionals, gCP, sTDA/sTD-DF 
  Waldemar Hujo          : DFT-NL                                        
  H. Jonsson             : NEB                                           
  Holger Kruse           : gCP                                           
  Marcel Mueller         : wB97X-3c, vDZP basis set                      
  Hagen Neugebauer       : wr2SCAN, Native XTB                           
  Gianluca Regni         : ADLD/ADEX                                     
  Tobias Risthaus        : pre 6.0 range-separated hybrid DFT and stability analysis
  Lukas Wittmann         : regularized MP2, r2SCAN double-hybrids, wr2SCAN        
                                                                         
We gratefully acknowledge several colleagues who have allowed us to      
interface, adapt or use parts of their codes:                            
  Ed Valeev, F. Pavosevic, A. Kumar             : LibInt (2-el integral package), F12 methods 
  Garnet Chan, S. Sharma, J. Yang, R. Olivares  : DMRG                   
  Ulf Ekstrom                                   : XCFun DFT Library      
  Mihaly Kallay                                 : mrcc  (arbitrary order and MRCC methods)
  Frank Weinhold                                : gennbo (NPA and NBO analysis)           
  Simon Mueller                                 : openCOSMO-RS                            
  Christopher J. Cramer and Donald G. Truhlar   : smd solvation model                     
  S Lehtola, MJT Oliveira, MAL Marques          : LibXC Library                           
  Liviu Ungur et al                             : ANISO software                          


 Your calculation uses the libint2 library for the computation of 2-el integrals
 For citations please refer to: http://libint.valeyev.net

 Your ORCA version has been built with support for libXC version: 7.0.0
 For citations please refer to: https://libxc.gitlab.io

 This ORCA versions uses:
   CBLAS   interface :  Fast vector & matrix operations
   LAPACKE interface :  Fast linear algebra routines
   Shared memory     :  Shared parallel matrices


  ***********************************
  * Starting time: Mon Mar 30 18:01:52 2026
  * Host name:     DESKTOP-E59RH2R
  * Process ID:    86124
  * Working dir.:  C:\Users\gnome\Desktop\Vitya_Diplom\Vitya_DiplomB12\05_spin_comparison\b12_hexagonal_prism\mult_5\freq
  ***********************************

NOTE: MaxCore=1500 MB was set to SCF,MP2,MDCI,CIPSI,MRCI,RASCI and CIS
      => If you want to overwrite this, your respective input block should be placed after the MaxCore statement
Your calculation utilizes the geometrical counterpoise correction gCP
Please cite in your paper:
H.Kruse, S. Grimme J.Chem.Phys., 136, (2012), 154101 
   

Your calculation utilizes the atom-pairwise dispersion correction
based on EEQ partial charges (D4)


================================================================================

----- Orbital basis set information -----
Your calculation utilizes the basis: def2-mTZVPP
   Stefan Grimme, Andreas Hansen, Sebastian Ehlert, and Jan-Michael Mewes 
   J. Chem. Phys. 154, 064103 (2021). DOI: 10.1063/5.0040021

----- AuxJ basis set information -----
Your calculation utilizes the basis: def2-mTZVPP/J
   Stefan Grimme, Andreas Hansen, Sebastian Ehlert, and Jan-Michael Mewes 
   J. Chem. Phys. 154, 000000 (2021). DOI: 10.1063/5.0040021

================================================================================
                                        WARNINGS
                       Please study these warnings very carefully!
================================================================================



WARNING: SCAN, rSCAN, or r2SCAN functional requested.
  ===> : libXC variant has now been activated.



WARNING: your system is open-shell and RHF/RKS was chosen
  ===> : WILL SWITCH to UHF/UKS


================================================================================
                                       INPUT FILE
================================================================================
NAME = b12_hexagonal_prism_m5_spinfreq.inp
|  1> !r2scan-3c
|  2> !freq
|  3> !tightscf
|  4> 
|  5> %output
|  6>     jsonpropfile true
|  7>     jsongbwfile true
|  8> end
|  9> 
| 10> %freq
| 11>     temp 298.15
| 12>     pressure 1.0
| 13> end
| 14> 
| 15> %maxcore 1500
| 16> %pal
| 17>   nprocs 8
| 18> end
| 19> 
| 20> * xyz 0 5
| 21> B             2.0661231065152799             0.6329915873365900             0.6371566524306300
| 22> B             0.4956824216654200             0.9355414265284300             0.9379622548449400
| 23> B            -1.1234926771391700             0.8082200366482600             0.8036116047116501
| 24> B            -2.0355312594148698            -0.5728155705083400             0.5799243340530300
| 25> B            -0.5241949485502700            -0.9289084912291800             0.9317970228879300
| 26> B             1.1238212602301800            -0.7633571087458900             0.7600933816386800
| 27> B             2.0614990008776100            -0.6456033992339500            -0.6386336155923100
| 28> B             1.1277183615025601             0.7565100805666300            -0.7605537933919800
| 29> B            -0.5192125804923600             0.9318815179214600            -0.9322368467266600
| 30> B            -2.0322634037726899             0.5857131991328900            -0.5785782445742400
| 31> B            -1.1292506259583399            -0.8011432103150000            -0.8030728592035200
| 32> B             0.4891013445366600            -0.9390300681018801            -0.9374698910781700
| 33> *
| 34> 
| 35>                          ****END OF INPUT****
================================================================================

                       ****************************
                       * Single Point Calculation *
                       ****************************

---------------------------------
CARTESIAN COORDINATES (ANGSTROEM)
---------------------------------
  B      2.066123    0.632992    0.637157
  B      0.495682    0.935541    0.937962
  B     -1.123493    0.808220    0.803612
  B     -2.035531   -0.572816    0.579924
  B     -0.524195   -0.928908    0.931797
  B      1.123821   -0.763357    0.760093
  B      2.061499   -0.645603   -0.638634
  B      1.127718    0.756510   -0.760554
  B     -0.519213    0.931882   -0.932237
  B     -2.032263    0.585713   -0.578578
  B     -1.129251   -0.801143   -0.803073
  B      0.489101   -0.939030   -0.937470

----------------------------
CARTESIAN COORDINATES (A.U.)
----------------------------
  NO LB      ZA    FRAG     MASS         X           Y           Z
   0 B     5.0000    0    10.810    3.904407    1.196181    1.204052
   1 B     5.0000    0    10.810    0.936704    1.767917    1.772492
   2 B     5.0000    0    10.810   -2.123093    1.527315    1.518606
   3 B     5.0000    0    10.810   -3.846597   -1.082465    1.095898
   4 B     5.0000    0    10.810   -0.990585   -1.755383    1.760841
   5 B     5.0000    0    10.810    2.123714   -1.442536    1.436368
   6 B     5.0000    0    10.810    3.895669   -1.220014   -1.206843
   7 B     5.0000    0    10.810    2.131079    1.429597   -1.437238
   8 B     5.0000    0    10.810   -0.981170    1.761001   -1.761672
   9 B     5.0000    0    10.810   -3.840421    1.106838   -1.093354
  10 B     5.0000    0    10.810   -2.133974   -1.513941   -1.517588
  11 B     5.0000    0    10.810    0.924268   -1.774510   -1.771561

--------------------------------
INTERNAL COORDINATES (ANGSTROEM)
--------------------------------
 B      0   0   0     0.000000000000     0.00000000     0.00000000
 B      1   0   0     1.627361164668     0.00000000     0.00000000
 B      2   1   0     1.629720477291   158.28193857     0.00000000
 B      3   2   1     1.670062788894   128.18644584    39.06508116
 B      4   3   2     1.592091078385    68.71194199    10.78670785
 B      5   4   3     1.665186723783   153.43956143   312.99964635
 B      6   5   4     1.688058853889   129.95041722   315.81118071
 B      1   2   3     1.688032811883    66.60773593    43.58211432
 B      8   1   2     1.665116133951   130.01022065   354.50787639
 B      9   8   1     1.591926413387   153.41412286   315.96522943
 B      4   3   2     1.669179239696    85.84710769   302.02162963
 B      7   6   5     1.627217477541    66.59857424   354.50002627

---------------------------
INTERNAL COORDINATES (A.U.)
---------------------------
 B      0   0   0     0.000000000000     0.00000000     0.00000000
 B      1   0   0     3.075266922202     0.00000000     0.00000000
 B      2   1   0     3.079725376923   158.28193857     0.00000000
 B      3   2   1     3.155961297462   128.18644584    39.06508116
 B      4   3   2     3.008616118407    68.71194199    10.78670785
 B      5   4   3     3.146746869792   153.43956143   312.99964635
 B      6   5   4     3.189968931791   129.95041722   315.81118071
 B      1   2   3     3.189919719532    66.60773593    43.58211432
 B      8   1   2     3.146613474340   130.01022065   354.50787639
 B      9   8   1     3.008304946657   153.41412286   315.96522943
 B      4   3   2     3.154291631453    85.84710769   302.02162963
 B      7   6   5     3.074995392883    66.59857424   354.50002627

---------------------
BASIS SET INFORMATION
---------------------
There are 1 groups of distinct atoms

 Group   1 Type B   : 11s6p1d contracted to 5s3p1d pattern {62111/411/1}

Atom   0B    basis set group =>   1
Atom   1B    basis set group =>   1
Atom   2B    basis set group =>   1
Atom   3B    basis set group =>   1
Atom   4B    basis set group =>   1
Atom   5B    basis set group =>   1
Atom   6B    basis set group =>   1
Atom   7B    basis set group =>   1
Atom   8B    basis set group =>   1
Atom   9B    basis set group =>   1
Atom  10B    basis set group =>   1
Atom  11B    basis set group =>   1
---------------------------------
AUXILIARY/J BASIS SET INFORMATION
---------------------------------
There are 1 groups of distinct atoms

 Group   1 Type B   : 8s3p3d contracted to 6s3p3d pattern {311111/111/111}

Atom   0B    basis set group =>   1
Atom   1B    basis set group =>   1
Atom   2B    basis set group =>   1
Atom   3B    basis set group =>   1
Atom   4B    basis set group =>   1
Atom   5B    basis set group =>   1
Atom   6B    basis set group =>   1
Atom   7B    basis set group =>   1
Atom   8B    basis set group =>   1
Atom   9B    basis set group =>   1
Atom  10B    basis set group =>   1
Atom  11B    basis set group =>   1


           ************************************************************
           *        Program running with 8 parallel MPI-processes     *
           *              working on a common directory               *
           ************************************************************
------------------------------------------------------------------------------
                             ORCA STARTUP CALCULATIONS
                           -- RI-GTO INTEGRALS CHOSEN --
------------------------------------------------------------------------------
------------------------------------------------------------------------------
                   ___                                                        
                  /   \      - P O W E R E D   B Y -                         
                 /     \                                                     
                 |  |  |   _    _      __       _____    __    __             
                 |  |  |  | |  | |    /  \     |  _  \  |  |  /  |          
                  \  \/   | |  | |   /    \    | | | |  |  | /  /          
                 / \  \   | |__| |  /  /\  \   | |_| |  |  |/  /          
                |  |  |   |  __  | /  /__\  \  |    /   |      \           
                |  |  |   | |  | | |   __   |  |    \   |  |\   \          
                \     /   | |  | | |  |  |  |  | |\  \  |  | \   \       
                 \___/    |_|  |_| |__|  |__|  |_| \__\ |__|  \__/        
                                                                              
                      - O R C A' S   B I G   F R I E N D -                    
                                      &                                       
                       - I N T E G R A L  F E E D E R -                       
                                                                              
 v1 FN, 2020, v2 2021, v3 2022-2024                                           
------------------------------------------------------------------------------


----------------------
SHARK INTEGRAL PACKAGE
----------------------

Number of atoms                             ...     12
Number of basis functions                   ...    228
Number of shells                            ...    108
Maximum angular momentum                    ...      2
Integral batch strategy                     ... SHARK/LIBINT Hybrid
RI-J (if used) integral strategy            ... SPLIT-RIJ (Revised 2003 algorithm where possible)
Printlevel                                  ...      1
Contraction scheme used                     ... SEGMENTED contraction
Prescreening option                         ... SCHWARTZ
   Thresh                                   ... 2.500e-11
   Tcut                                     ... 2.500e-12
   Tpresel                                  ... 2.500e-12 
Coulomb Range Separation                    ... NOT USED
Exchange Range Separation                   ... NOT USED
Multipole approximations                    ... NOT USED
Finite Nucleus Model                        ... NOT USED
CABS basis                                  ... NOT available
Auxiliary Coulomb fitting basis             ... AVAILABLE
   # of basis functions in Aux-J            ...    360
   # of shells in Aux-J                     ...    144
   Maximum angular momentum in Aux-J        ...      2
Auxiliary J/K fitting basis                 ... NOT available
Auxiliary Correlation fitting basis         ... NOT available
Auxiliary 'external' fitting basis          ... NOT available

Checking pre-screening integrals            ... done (  0.0 sec) Dimension = 108
   => SHARK Basis and OBASIS are compatible. Storing Pre-screening
Shell pair information
Shell pair cut-off parameter TPreSel        ...   2.5e-12
Total number of shell pairs                 ...      5886
Shell pairs after pre-screening             ...      5694
Total number of primitive shell pairs       ...     23700
Primitive shell pairs kept                  ...     16975
          la=0 lb=0:   1670 shell pairs
          la=1 lb=0:   2152 shell pairs
          la=1 lb=1:    666 shell pairs
          la=2 lb=0:    696 shell pairs
          la=2 lb=1:    432 shell pairs
          la=2 lb=2:     78 shell pairs

Checking whether 4 symmetric matrices of dimension 228 fit in memory
:Max Core in MB      =   1500.00
 MB in use           =      7.43
 MB left             =   1492.57
 MB needed           =      0.80
 Data fit in memory  = YES
Calculating RI/J V-Matrix + Cholesky decomp.... done (  0.0 sec)
Calculating Nuclear repulsion               ... done (  0.0 sec) ENN=    383.705216048251 Eh

Diagonalization of the overlap matrix:
Smallest eigenvalue                        ... 2.379e-06
Time for diagonalization                   ...    0.003 sec
Threshold for overlap eigenvalues          ... 1.000e-07
Number of eigenvalues below threshold      ... 0
Time for construction of square roots      ...    0.003 sec
Total time needed                          ...    0.008 sec

-------------------
DFT GRID GENERATION
-------------------

General Integration Accuracy     IntAcc      ... 4.388
Radial Grid Type                 RadialGrid  ... OptM3 with GC (2021)
Angular Grid (max. ang.)         AngularGrid ... 4 (Lebedev-302)
Angular grid pruning method      GridPruning ... 4 (adaptive)
Weight generation scheme         WeightScheme... mBecke (2022)
Basis function cutoff            BFCut       ... 1.0000e-11
Integration weight cutoff        WCut        ... 1.0000e-14
Partially contracted basis set               ... off
Rotationally invariant grid construction     ... off
Angular grids for H and He will be reduced by one unit

Total number of grid points                  ...    69935
Total number of batches                      ...     1100
Average number of points per batch           ...       63
Average number of grid points per atom       ...     5828
Grids setup in   0.3 sec
Initializing property integral containers    ... done (  0.0 sec)

SHARK setup successfully completed in   0.5 seconds

Maximum memory used throughout the entire STARTUP-calculation: 20.5 MB


           ************************************************************
           *        Program running with 8 parallel MPI-processes     *
           *              working on a common directory               *
           ************************************************************
-------------------------------------------------------------------------------
                                 ORCA GUESS
                   Start orbitals & Density for SCF / CASSCF
-------------------------------------------------------------------------------

------------
SCF SETTINGS
------------
Hamiltonian:
 Density Functional     Method          .... DFT(GTOs)
  Functional kind                       .... Exchange
  Functional name                       .... Re-regularized SCAN exchange by Furness et al
  Functional family                     .... MGGA
  Functional refs                              
    [ 0] J. W. Furness, A. D. Kaplan, J. Ning, J. P. Perdew, and J. Sun.,  J. Phys. Chem. Lett. 11, 8208-8215 (2020), doi: 10.1021/acs.jpclett.0c02405
    [ 1] J. W. Furness, A. D. Kaplan, J. Ning, J. P. Perdew, and J. Sun.,  J. Phys. Chem. Lett. 11, 9248-9248 (2020), doi: 10.1021/acs.jpclett.0c03077
  Functional external parameters        .... 6
    Parameter  0 _c1        =  6.670000e-01 : c1 parameter        
    Parameter  1 _c2        =  8.000000e-01 : c2 parameter        
    Parameter  2 _d         =  1.240000e+00 : d parameter         
    Parameter  3 _k1        =  6.500000e-02 : k1 parameter        
    Parameter  4 _eta       =  1.000000e-03 : eta parameter       
    Parameter  5 _dp2       =  3.610000e-01 : dp2 parameter       
  Functional kind                       .... Correlation
  Functional name                       .... Re-regularized SCAN correlation by Furness et al
  Functional family                     .... MGGA
  Functional refs                              
    [ 0] J. W. Furness, A. D. Kaplan, J. Ning, J. P. Perdew, and J. Sun.,  J. Phys. Chem. Lett. 11, 8208-8215 (2020), doi: 10.1021/acs.jpclett.0c02405
    [ 1] J. W. Furness, A. D. Kaplan, J. Ning, J. P. Perdew, and J. Sun.,  J. Phys. Chem. Lett. 11, 9248-9248 (2020), doi: 10.1021/acs.jpclett.0c03077
  Functional external parameters        .... 1
    Parameter  0 _eta       =  1.000000e-03 : Regularization parameter
 Gradients option       PostSCFGGA      .... off
 RI-approximation to the Coulomb term is turned on
   Number of AuxJ basis functions       .... 360


General Settings:
 Integral files         IntName         .... b12_hexagonal_prism_m5_spinfreq
 Hartree-Fock type      HFTyp           .... UHF
 Total Charge           Charge          ....    0
 Multiplicity           Mult            ....    5
 Number of Electrons    NEL             ....   60
 Basis Dimension        Dim             ....  228
 Nuclear Repulsion      ENuc            ....    383.7052160483 Eh

Convergence Acceleration:
 AO-DIIS                CNVDIIS         .... on
   Start iteration      DIISMaxIt       ....    12
   Startup error        DIISStart       ....  0.200000
   # of expansion vecs  DIISMaxEq       ....     5
   Bias factor          DIISBfac        ....   1.050
   Max. coefficient     DIISMaxC        ....  10.000
 MO-DIIS                CNVKDIIS        .... off
 Trust-Rad. Augm. Hess. CNVTRAH         .... auto
   Auto Start mean grad. ratio tolernc. ....  1.125000
   Auto Start start iteration           ....    50
   Auto Start num. interpolation iter.  ....    10
   Max. Number of Micro iterations      ....    24
   Max. Number of Macro iterations      .... Maxiter - #DIIS iter
   Number of Davidson start vectors     ....     2
   Converg. threshold    (grad. norm)   ....   1.000e-05
   Grad. Scal. Fac. for Micro threshold ....   0.100
   Minimum threshold for Micro iter.    ....   1.000e-02
   NR start threshold (gradient norm)   ....   1.000e-04
   Initial trust radius                 ....   0.400
   Minimum AH scaling param. (alpha)    ....   1.000
   Maximum AH scaling param. (alpha)    .... 1000.000
   Quad. conv. algorithm                .... NR
   White noise on init. David. guess    .... on
   Maximum white noise                  ....   0.010
   Pseudo random numbers                .... off
   Inactive MOs                         .... canonical
   Orbital update algorithm             .... Taylor
   Preconditioner                       .... Diag
   Full preconditioner red. dimension   ....   250
   COSX micro iterations for RIJONX calc.... off
 SOSCF                 CNVSOSCF           .... on
   Start iteration     SOSCFMaxIt         ....   150
   Startup grad/error  SOSCFStart         ....  0.003300
   Hessian update      SOSCFHessUp        .... L-BFGS
   Autom. constraints  SOSCFAutoConstrain .... off
 Level Shifting         CNVShift        .... on
   Level shift para.    LevelShift      ....    0.2500
   Turn off err/grad.   ShiftErr        ....    0.0010
 Zerner damping         CNVZerner       .... off
 Static damping         CNVDamp         .... on
   Fraction old density DampFac         ....    0.7000
   Max. Damping (<1)    DampMax         ....    0.9800
   Min. Damping (>=0)   DampMin         ....    0.0000
   Turn off err/grad.   DampErr         ....    0.1000

SCF Procedure:
 Maximum # iterations   MaxIter         ....   125
 SCF integral mode      SCFMode         .... Direct
   Integral package                     .... SHARK and LIBINT hybrid scheme
 Reset frequency        DirectResetFreq ....    20
 Integral Threshold     Thresh          ....  2.500e-11 Eh
 Primitive CutOff       TCut            ....  2.500e-12 Eh

Convergence Tolerance:
 Convergence Check Mode ConvCheckMode   .... Total+1el-Energy
 Convergence forced     ConvForced      .... 0
 Energy Change          TolE            ....  1.000e-08 Eh
 1-El. energy change                    ....  1.000e-05 Eh
 Orbital Gradient       TolG            ....  1.000e-05
 Orbital Rotation angle TolX            ....  1.000e-05
 DIIS Error             TolErr          ....  5.000e-07

------------------------------
INITIAL GUESS: MODEL POTENTIAL
------------------------------
Loading Hartree-Fock densities                     ... done
Calculating cut-offs                               ... done
Initializing the effective Hamiltonian             ... done
Setting up the integral package (SHARK)            ... done
Starting the Coulomb interaction                   ... done (   0.0 sec)
Making the grid                                    ... done (   0.1 sec)
Mapping shells                                     ... done
Starting the XC term evaluation                    ... done (   0.1 sec)
  promolecular density results
     # of electrons  =     60.005179617
     EX              =    -45.885713871
     EC              =     -1.922362984
     EX+EC           =    -47.808076855
Transforming the Hamiltonian                       ... done (   0.0 sec)
Diagonalizing the Hamiltonian                      ... done (   0.0 sec)
Back transforming the eigenvectors                 ... done (   0.0 sec)
Now organizing SCF variables                       ... done
                      ------------------
                      INITIAL GUESS DONE (   0.2 sec)
                      ------------------
             **** ENERGY FILE WAS UPDATED (b12_hexagonal_prism_m5_spinfreq.en.tmp) ****
Finished Guess after   0.3 sec
Maximum memory used throughout the entire GUESS-calculation: 10.9 MB


           ************************************************************
           *        Program running with 8 parallel MPI-processes     *
           *              working on a common directory               *
           ************************************************************

-------------------------------------------------------------------------------------------
                                      ORCA LEAN-SCF
                              memory conserving SCF solver
-------------------------------------------------------------------------------------------

----------------------------------------D-I-I-S--------------------------------------------
Iteration    Energy (Eh)           Delta-E    RMSDP     MaxDP     DIISErr   Damp  Time(sec)
-------------------------------------------------------------------------------------------
               ***  Starting incremental Fock matrix formation  ***
    1    -297.2758881926507115     0.00e+00  3.61e-01  6.20e+00  6.36e-02  0.700   0.8
Warning: op=0 Small HOMO/LUMO gap (  -0.001) - skipping pre-diagonalization
         Will do a full diagonalization
    2    -297.4984132333030971    -2.23e-01  2.59e-01  4.48e+00  3.01e-02  0.700   0.8
                               ***Turning on AO-DIIS***
    3    -297.5796038827617735    -8.12e-02  1.10e-01  1.86e+00  1.20e-02  0.700   0.9
    4    -297.6257712048240478    -4.62e-02  1.51e-01  2.65e+00  7.14e-03  0.000   0.7
    5    -297.7326662700939437    -1.07e-01  1.53e-02  2.43e-01  4.96e-03  0.000   0.8
                              *** Initializing SOSCF ***
---------------------------------------S-O-S-C-F--------------------------------------
Iteration    Energy (Eh)           Delta-E    RMSDP     MaxDP     MaxGrad    Time(sec)
--------------------------------------------------------------------------------------
    6    -297.7353987237409569    -2.73e-03  6.08e-03  9.55e-02  2.15e-03     0.8
               *** Restarting incremental Fock matrix formation ***
    7    -297.7359107354764660    -5.12e-04  9.78e-03  1.59e-01  2.09e-03     0.7
    8    -297.7359294745980947    -1.87e-05  3.24e-03  5.83e-02  3.61e-03     0.7
    9    -297.7361553518507549    -2.26e-04  5.41e-03  1.06e-01  7.39e-04     0.7
   10    -297.7361719272377627    -1.66e-05  1.86e-03  3.20e-02  8.03e-04     0.7
   11    -297.7362009091985442    -2.90e-05  4.08e-03  6.65e-02  1.74e-04     0.7
   12    -297.7362013902261992    -4.81e-07  1.33e-03  2.10e-02  2.77e-04     0.6
   13    -297.7362042606430919    -2.87e-06  3.38e-04  6.59e-03  5.65e-05     0.7
   14    -297.7362044293640224    -1.69e-07  2.62e-04  5.15e-03  4.23e-05     0.6
   15    -297.7362044963487619    -6.70e-08  1.36e-04  2.64e-03  1.38e-05     0.6
   16    -297.7362045152569294    -1.89e-08  2.88e-04  5.57e-03  9.08e-06     0.6
   17    -297.7362045207443657    -5.49e-09  2.17e-04  3.97e-03  1.23e-05     0.6
                 **** Energy Check signals convergence ****

               *****************************************************
               *                     SUCCESS                       *
               *           SCF CONVERGED AFTER  17 CYCLES          *
               *****************************************************

             **** ENERGY FILE WAS UPDATED (b12_hexagonal_prism_m5_spinfreq.en.tmp) ****

----------------
TOTAL SCF ENERGY
----------------

Total Energy       :       -297.73620452249219 Eh           -8101.81401 eV

Components:
Nuclear Repulsion  :        383.70521604825086 Eh           10441.14975 eV
Electronic Energy  :       -681.44142057074305 Eh          -18542.96376 eV
One Electron Energy:      -1155.24028324702704 Eh          -31435.68627 eV
Two Electron Energy:        473.79886267628399 Eh           12892.72251 eV

Virial components:
Potential Energy   :       -594.06799746440947 Eh          -16165.41204 eV
Kinetic Energy     :        296.33179294191734 Eh            8063.59803 eV
Virial Ratio       :          2.00473932130816

DFT components:
N(Alpha)           :       32.000509031799 electrons
N(Beta)            :       28.000486442626 electrons
N(Total)           :       60.000995474424 electrons
E(X)               :      -46.860489685491 Eh       
E(C)               :       -1.918905160918 Eh       
E(XC)              :      -48.779394846409 Eh       

---------------
SCF CONVERGENCE
---------------

  Last Energy change         ...    5.4874e-09  Tolerance :   1.0000e-08
  Last MAX-Density change    ...    3.9712e-03  Tolerance :   1.0000e-07
  Last RMS-Density change    ...    2.1737e-04  Tolerance :   5.0000e-09
  Last DIIS Error            ...    2.1517e-03  Tolerance :   5.0000e-07
  Last Orbital Gradient      ...    1.2255e-05  Tolerance :   1.0000e-05
  Last Orbital Rotation      ...    7.0647e-05  Tolerance :   1.0000e-05


----------------------
UHF SPIN CONTAMINATION
----------------------

Warning: in a DFT calculation there is little theoretical justification to 
         calculate <S**2> as in Hartree-Fock theory. We will do it anyways
         but you should keep in mind that the values have only limited relevance

Expectation value of <S**2>     :     6.057338
Ideal value S*(S+1) for S=2.0   :     6.000000
Deviation                       :     0.057338

----------------
ORBITAL ENERGIES
----------------
                 SPIN UP ORBITALS
  NO   OCC          E(Eh)            E(eV) 
   0   1.0000      -6.701823      -182.3659 
   1   1.0000      -6.701791      -182.3650 
   2   1.0000      -6.690277      -182.0517 
   3   1.0000      -6.690226      -182.0503 
   4   1.0000      -6.681996      -181.8264 
   5   1.0000      -6.681958      -181.8253 
   6   1.0000      -6.680275      -181.7795 
   7   1.0000      -6.680252      -181.7789 
   8   1.0000      -6.676091      -181.6657 
   9   1.0000      -6.675619      -181.6528 
  10   1.0000      -6.661356      -181.2647 
  11   1.0000      -6.661211      -181.2608 
  12   1.0000      -0.827063       -22.5055 
  13   1.0000      -0.740410       -20.1476 
  14   1.0000      -0.589855       -16.0508 
  15   1.0000      -0.585682       -15.9372 
  16   1.0000      -0.567002       -15.4289 
  17   1.0000      -0.490445       -13.3457 
  18   1.0000      -0.475632       -12.9426 
  19   1.0000      -0.390974       -10.6389 
  20   1.0000      -0.384447       -10.4613 
  21   1.0000      -0.370831       -10.0908 
  22   1.0000      -0.362857        -9.8739 
  23   1.0000      -0.362709        -9.8698 
  24   1.0000      -0.336869        -9.1667 
  25   1.0000      -0.312999        -8.5171 
  26   1.0000      -0.295303        -8.0356 
  27   1.0000      -0.261768        -7.1231 
  28   1.0000      -0.241946        -6.5837 
  29   1.0000      -0.231140        -6.2896 
  30   1.0000      -0.208893        -5.6843 
  31   1.0000      -0.175530        -4.7764 
  32   0.0000      -0.154350        -4.2001 
  33   0.0000      -0.125248        -3.4082 
  34   0.0000      -0.078291        -2.1304 
  35   0.0000      -0.078195        -2.1278 
  36   0.0000      -0.052541        -1.4297 
  37   0.0000      -0.044556        -1.2124 
  38   0.0000      -0.020158        -0.5485 
  39   0.0000      -0.017402        -0.4735 
  40   0.0000       0.022574         0.6143 
  41   0.0000       0.055552         1.5116 
  42   0.0000       0.060777         1.6538 

                 SPIN DOWN ORBITALS
  NO   OCC          E(Eh)            E(eV) 
   0   1.0000      -6.696346      -182.2168 
   1   1.0000      -6.696316      -182.2160 
   2   1.0000      -6.685599      -181.9244 
   3   1.0000      -6.685544      -181.9229 
   4   1.0000      -6.679684      -181.7634 
   5   1.0000      -6.679664      -181.7629 
   6   1.0000      -6.677491      -181.7038 
   7   1.0000      -6.677452      -181.7027 
   8   1.0000      -6.672524      -181.5686 
   9   1.0000      -6.672053      -181.5558 
  10   1.0000      -6.650479      -180.9687 
  11   1.0000      -6.650329      -180.9646 
  12   1.0000      -0.813806       -22.1448 
  13   1.0000      -0.733605       -19.9624 
  14   1.0000      -0.572592       -15.5810 
  15   1.0000      -0.570387       -15.5210 
  16   1.0000      -0.554102       -15.0779 
  17   1.0000      -0.475071       -12.9273 
  18   1.0000      -0.468780       -12.7561 
  19   1.0000      -0.376560       -10.2467 
  20   1.0000      -0.375461       -10.2168 
  21   1.0000      -0.352927        -9.6036 
  22   1.0000      -0.332271        -9.0416 
  23   1.0000      -0.331349        -9.0165 
  24   1.0000      -0.327375        -8.9083 
  25   1.0000      -0.295574        -8.0430 
  26   1.0000      -0.253491        -6.8978 
  27   1.0000      -0.252944        -6.8830 
  28   0.0000      -0.183791        -5.0012 
  29   0.0000      -0.181242        -4.9318 
  30   0.0000      -0.132351        -3.6014 
  31   0.0000      -0.104464        -2.8426 
  32   0.0000      -0.068801        -1.8722 
  33   0.0000      -0.068012        -1.8507 
  34   0.0000      -0.043071        -1.1720 
  35   0.0000      -0.029419        -0.8005 
  36   0.0000      -0.024773        -0.6741 
  37   0.0000      -0.023505        -0.6396 
  38   0.0000      -0.006561        -0.1785 
*Only the first 10 virtual orbitals were printed.

                    ********************************
                    * MULLIKEN POPULATION ANALYSIS *
                    ********************************

--------------------------------------------
MULLIKEN ATOMIC CHARGES AND SPIN POPULATIONS
--------------------------------------------
   0 B :   -0.207150    0.699009
   1 B :   -0.545355    0.318401
   2 B :    0.568834    0.012315
   3 B :   -0.010171    0.482185
   4 B :   -0.463075    0.329452
   5 B :    0.656717    0.159024
   6 B :   -0.208386    0.698131
   7 B :    0.656975    0.158584
   8 B :   -0.464204    0.329419
   9 B :   -0.008454    0.482269
  10 B :    0.568701    0.012998
  11 B :   -0.544433    0.318214
Sum of atomic charges         :    0.0000000
Sum of atomic spin populations:    4.0000000

-----------------------------------------------------
MULLIKEN REDUCED ORBITAL CHARGES AND SPIN POPULATIONS
-----------------------------------------------------
CHARGE
  0 B s       :     3.064395  s :     3.064395
      pz      :     0.624026  p :     2.103884
      px      :     0.856351
      py      :     0.623507
      dz2     :     0.008009  d :     0.038871
      dxz     :     0.008324
      dyz     :     0.004416
      dx2y2   :     0.009797
      dxy     :     0.008325

  1 B s       :     3.703323  s :     3.703323
      pz      :     0.499408  p :     1.800727
      px      :     0.800576
      py      :     0.500744
      dz2     :     0.008309  d :     0.041305
      dxz     :     0.009984
      dyz     :     0.004483
      dx2y2   :     0.008538
      dxy     :     0.009990

  2 B s       :     2.186856  s :     2.186856
      pz      :     0.721940  p :     2.200645
      px      :     0.755974
      py      :     0.722731
      dz2     :     0.010357  d :     0.043665
      dxz     :     0.006471
      dyz     :     0.009867
      dx2y2   :     0.010506
      dxy     :     0.006463

  3 B s       :     2.798657  s :     2.798657
      pz      :     0.694990  p :     2.169679
      px      :     0.779757
      py      :     0.694932
      dz2     :     0.009157  d :     0.041835
      dxz     :     0.009292
      dyz     :     0.004495
      dx2y2   :     0.009602
      dxy     :     0.009289

  4 B s       :     3.533163  s :     3.533163
      pz      :     0.523441  p :     1.888799
      px      :     0.841349
      py      :     0.524009
      dz2     :     0.008767  d :     0.041113
      dxz     :     0.009705
      dyz     :     0.004355
      dx2y2   :     0.008577
      dxy     :     0.009709

  5 B s       :     1.997910  s :     1.997910
      pz      :     0.718443  p :     2.301899
      px      :     0.864518
      py      :     0.718937
      dz2     :     0.010532  d :     0.043474
      dxz     :     0.006343
      dyz     :     0.009544
      dx2y2   :     0.010734
      dxy     :     0.006321

  6 B s       :     3.065555  s :     3.065555
      pz      :     0.624072  p :     2.103966
      px      :     0.856262
      py      :     0.623632
      dz2     :     0.008017  d :     0.038865
      dxz     :     0.008288
      dyz     :     0.004449
      dx2y2   :     0.009825
      dxy     :     0.008286

  7 B s       :     1.997892  s :     1.997892
      pz      :     0.718248  p :     2.301669
      px      :     0.864338
      py      :     0.719082
      dz2     :     0.010532  d :     0.043464
      dxz     :     0.006333
      dyz     :     0.009545
      dx2y2   :     0.010711
      dxy     :     0.006344

  8 B s       :     3.534477  s :     3.534477
      pz      :     0.523187  p :     1.888637
      px      :     0.842442
      py      :     0.523008
      dz2     :     0.008762  d :     0.041089
      dxz     :     0.009705
      dyz     :     0.004344
      dx2y2   :     0.008569
      dxy     :     0.009709

  9 B s       :     2.797049  s :     2.797049
      pz      :     0.694991  p :     2.169561
      px      :     0.780137
      py      :     0.694433
      dz2     :     0.009154  d :     0.041844
      dxz     :     0.009265
      dyz     :     0.004524
      dx2y2   :     0.009618
      dxy     :     0.009283

 10 B s       :     2.186598  s :     2.186598
      pz      :     0.722121  p :     2.201030
      px      :     0.755816
      py      :     0.723093
      dz2     :     0.010357  d :     0.043672
      dxz     :     0.006460
      dyz     :     0.009887
      dx2y2   :     0.010490
      dxy     :     0.006477

 11 B s       :     3.702293  s :     3.702293
      pz      :     0.499474  p :     1.800816
      px      :     0.802109
      py      :     0.499233
      dz2     :     0.008313  d :     0.041323
      dxz     :     0.009999
      dyz     :     0.004475
      dx2y2   :     0.008544
      dxy     :     0.009992


SPIN
  0 B s       :     0.008724  s :     0.008724
      pz      :     0.121783  p :     0.694411
      px      :     0.451771
      py      :     0.120857
      dz2     :    -0.000982  d :    -0.004126
      dxz     :    -0.000627
      dyz     :    -0.000408
      dx2y2   :    -0.001489
      dxy     :    -0.000620

  1 B s       :    -0.109253  s :    -0.109253
      pz      :     0.143456  p :     0.424880
      px      :     0.137469
      py      :     0.143955
      dz2     :     0.000138  d :     0.002774
      dxz     :     0.001714
      dyz     :    -0.000377
      dx2y2   :    -0.000413
      dxy     :     0.001711

  2 B s       :    -0.266884  s :    -0.266884
      pz      :     0.142659  p :     0.277215
      px      :    -0.008885
      py      :     0.143441
      dz2     :     0.000833  d :     0.001984
      dxz     :     0.000935
      dyz     :    -0.000616
      dx2y2   :    -0.000099
      dxy     :     0.000932

  3 B s       :     0.142435  s :     0.142435
      pz      :     0.071163  p :     0.340847
      px      :     0.199145
      py      :     0.070539
      dz2     :    -0.000191  d :    -0.001098
      dxz     :    -0.000534
      dyz     :     0.000241
      dx2y2   :    -0.000096
      dxy     :    -0.000518

  4 B s       :    -0.078387  s :    -0.078387
      pz      :     0.170263  p :     0.406831
      px      :     0.066161
      py      :     0.170407
      dz2     :     0.000852  d :     0.001008
      dxz     :     0.000381
      dyz     :    -0.000229
      dx2y2   :    -0.000375
      dxy     :     0.000378

  5 B s       :     0.125127  s :     0.125127
      pz      :     0.058076  p :     0.029979
      px      :    -0.085826
      py      :     0.057728
      dz2     :     0.001302  d :     0.003918
      dxz     :     0.001284
      dyz     :    -0.000320
      dx2y2   :     0.000372
      dxy     :     0.001278

  6 B s       :     0.008058  s :     0.008058
      pz      :     0.121881  p :     0.694194
      px      :     0.449652
      py      :     0.122661
      dz2     :    -0.000983  d :    -0.004122
      dxz     :    -0.000614
      dyz     :    -0.000422
      dx2y2   :    -0.001493
      dxy     :    -0.000610

  7 B s       :     0.124575  s :     0.124575
      pz      :     0.058128  p :     0.030093
      px      :    -0.086440
      py      :     0.058405
      dz2     :     0.001304  d :     0.003916
      dxz     :     0.001274
      dyz     :    -0.000310
      dx2y2   :     0.000372
      dxy     :     0.001277

  8 B s       :    -0.078269  s :    -0.078269
      pz      :     0.170324  p :     0.406684
      px      :     0.066416
      py      :     0.169944
      dz2     :     0.000850  d :     0.001004
      dxz     :     0.000374
      dyz     :    -0.000224
      dx2y2   :    -0.000372
      dxy     :     0.000377

  9 B s       :     0.143123  s :     0.143123
      pz      :     0.071008  p :     0.340237
      px      :     0.197873
      py      :     0.071356
      dz2     :    -0.000190  d :    -0.001090
      dxz     :    -0.000520
      dyz     :     0.000233
      dx2y2   :    -0.000088
      dxy     :    -0.000525

 10 B s       :    -0.266840  s :    -0.266840
      pz      :     0.142837  p :     0.277857
      px      :    -0.007606
      py      :     0.142626
      dz2     :     0.000831  d :     0.001981
      dxz     :     0.000923
      dyz     :    -0.000605
      dx2y2   :    -0.000095
      dxy     :     0.000926

 11 B s       :    -0.109344  s :    -0.109344
      pz      :     0.143287  p :     0.424776
      px      :     0.137478
      py      :     0.144011
      dz2     :     0.000139  d :     0.002781
      dxz     :     0.001716
      dyz     :    -0.000374
      dx2y2   :    -0.000417
      dxy     :     0.001717



                     *******************************
                     * LOEWDIN POPULATION ANALYSIS *
                     *******************************

-------------------------------------------
LOEWDIN ATOMIC CHARGES AND SPIN POPULATIONS
-------------------------------------------
   0 B :   -0.050140    0.715395
   1 B :    0.043207    0.317285
   2 B :   -0.022503    0.283355
   3 B :   -0.017923    0.274820
   4 B :    0.074062    0.341101
   5 B :   -0.026747    0.068321
   6 B :   -0.050124    0.715016
   7 B :   -0.026689    0.068443
   8 B :    0.074099    0.341022
   9 B :   -0.017858    0.274338
  10 B :   -0.022614    0.283813
  11 B :    0.043229    0.317090

----------------------------------------------------
LOEWDIN REDUCED ORBITAL CHARGES AND SPIN POPULATIONS
----------------------------------------------------
CHARGE
  0 B s       :     2.717150  s :     2.717150
      pz      :     0.736982  p :     2.254623
      px      :     0.780970
      py      :     0.736671
      dz2     :     0.016620  d :     0.078367
      dxz     :     0.017071
      dyz     :     0.007173
      dx2y2   :     0.020428
      dxy     :     0.017076

  1 B s       :     2.709144  s :     2.709144
      pz      :     0.607548  p :     2.165235
      px      :     0.949049
      py      :     0.608639
      dz2     :     0.017021  d :     0.082414
      dxz     :     0.019622
      dyz     :     0.007420
      dx2y2   :     0.018725
      dxy     :     0.019626

  2 B s       :     2.669204  s :     2.669204
      pz      :     0.714801  p :     2.268963
      px      :     0.840038
      py      :     0.714124
      dz2     :     0.021383  d :     0.084336
      dxz     :     0.013531
      dyz     :     0.014128
      dx2y2   :     0.021784
      dxy     :     0.013510

  3 B s       :     2.672619  s :     2.672619
      pz      :     0.784759  p :     2.263591
      px      :     0.694141
      py      :     0.784691
      dz2     :     0.018160  d :     0.081713
      dxz     :     0.017528
      dyz     :     0.008256
      dx2y2   :     0.020217
      dxy     :     0.017551

  4 B s       :     2.696652  s :     2.696652
      pz      :     0.609497  p :     2.148388
      px      :     0.929142
      py      :     0.609750
      dz2     :     0.017395  d :     0.080898
      dxz     :     0.019614
      dyz     :     0.006280
      dx2y2   :     0.018005
      dxy     :     0.019605

  5 B s       :     2.674103  s :     2.674103
      pz      :     0.709796  p :     2.267387
      px      :     0.847997
      py      :     0.709594
      dz2     :     0.021777  d :     0.085257
      dxz     :     0.013467
      dyz     :     0.014536
      dx2y2   :     0.022068
      dxy     :     0.013409

  6 B s       :     2.717104  s :     2.717104
      pz      :     0.737114  p :     2.254658
      px      :     0.780915
      py      :     0.736629
      dz2     :     0.016641  d :     0.078362
      dxz     :     0.017009
      dyz     :     0.007224
      dx2y2   :     0.020510
      dxy     :     0.016979

  7 B s       :     2.674184  s :     2.674184
      pz      :     0.709609  p :     2.267269
      px      :     0.847091
      py      :     0.710569
      dz2     :     0.021775  d :     0.085236
      dxz     :     0.013433
      dyz     :     0.014552
      dx2y2   :     0.022011
      dxy     :     0.013466

  8 B s       :     2.696779  s :     2.696779
      pz      :     0.609256  p :     2.148272
      px      :     0.929568
      py      :     0.609448
      dz2     :     0.017382  d :     0.080850
      dxz     :     0.019615
      dyz     :     0.006256
      dx2y2   :     0.017971
      dxy     :     0.019626

  9 B s       :     2.672583  s :     2.672583
      pz      :     0.784773  p :     2.263550
      px      :     0.694785
      py      :     0.783993
      dz2     :     0.018150  d :     0.081724
      dxz     :     0.017494
      dyz     :     0.008302
      dx2y2   :     0.020298
      dxy     :     0.017481

 10 B s       :     2.669096  s :     2.669096
      pz      :     0.714974  p :     2.269169
      px      :     0.838660
      py      :     0.715536
      dz2     :     0.021386  d :     0.084349
      dxz     :     0.013496
      dyz     :     0.014180
      dx2y2   :     0.021758
      dxy     :     0.013530

 11 B s       :     2.709032  s :     2.709032
      pz      :     0.607753  p :     2.165283
      px      :     0.949377
      py      :     0.608154
      dz2     :     0.017030  d :     0.082455
      dxz     :     0.019673
      dyz     :     0.007391
      dx2y2   :     0.018693
      dxy     :     0.019668


SPIN
  0 B s       :     0.185649  s :     0.185649
      pz      :     0.102016  p :     0.533187
      px      :     0.329924
      py      :     0.101247
      dz2     :    -0.001304  d :    -0.003441
      dxz     :    -0.000389
      dyz     :     0.000049
      dx2y2   :    -0.001429
      dxy     :    -0.000367

  1 B s       :     0.035427  s :     0.035427
      pz      :     0.123036  p :     0.276391
      px      :     0.029859
      py      :     0.123495
      dz2     :     0.000198  d :     0.005468
      dxz     :     0.003264
      dyz     :    -0.000798
      dx2y2   :    -0.000459
      dxy     :     0.003264

  2 B s       :     0.036331  s :     0.036331
      pz      :     0.106397  p :     0.240507
      px      :     0.027441
      py      :     0.106669
      dz2     :     0.001554  d :     0.006518
      dxz     :     0.002127
      dyz     :     0.000678
      dx2y2   :     0.000036
      dxy     :     0.002122

  3 B s       :     0.053534  s :     0.053534
      pz      :     0.048900  p :     0.218674
      px      :     0.121386
      py      :     0.048388
      dz2     :     0.000275  d :     0.002611
      dxz     :    -0.000115
      dyz     :     0.001132
      dx2y2   :     0.001396
      dxy     :    -0.000078

  4 B s       :     0.028385  s :     0.028385
      pz      :     0.153613  p :     0.310620
      px      :     0.003301
      py      :     0.153705
      dz2     :     0.001346  d :     0.002096
      dxz     :     0.000738
      dyz     :    -0.000178
      dx2y2   :    -0.000552
      dxy     :     0.000743

  5 B s       :     0.004425  s :     0.004425
      pz      :     0.035645  p :     0.054644
      px      :    -0.016549
      py      :     0.035547
      dz2     :     0.002423  d :     0.009252
      dxz     :     0.002803
      dyz     :     0.000281
      dx2y2   :     0.000948
      dxy     :     0.002796

  6 B s       :     0.185530  s :     0.185530
      pz      :     0.102137  p :     0.532923
      px      :     0.327784
      py      :     0.103001
      dz2     :    -0.001304  d :    -0.003436
      dxz     :    -0.000370
      dyz     :     0.000023
      dx2y2   :    -0.001415
      dxy     :    -0.000371

  7 B s       :     0.004425  s :     0.004425
      pz      :     0.035701  p :     0.054775
      px      :    -0.016833
      py      :     0.035906
      dz2     :     0.002425  d :     0.009244
      dxz     :     0.002783
      dyz     :     0.000298
      dx2y2   :     0.000951
      dxy     :     0.002788

  8 B s       :     0.028380  s :     0.028380
      pz      :     0.153643  p :     0.310550
      px      :     0.003405
      py      :     0.153502
      dz2     :     0.001343  d :     0.002092
      dxz     :     0.000728
      dyz     :    -0.000171
      dx2y2   :    -0.000532
      dxy     :     0.000724

  9 B s       :     0.053416  s :     0.053416
      pz      :     0.048792  p :     0.218298
      px      :     0.120412
      py      :     0.049094
      dz2     :     0.000276  d :     0.002624
      dxz     :    -0.000094
      dyz     :     0.001123
      dx2y2   :     0.001418
      dxy     :    -0.000098

 10 B s       :     0.036414  s :     0.036414
      pz      :     0.106516  p :     0.240883
      px      :     0.027972
      py      :     0.106395
      dz2     :     0.001552  d :     0.006516
      dxz     :     0.002105
      dyz     :     0.000701
      dx2y2   :     0.000048
      dxy     :     0.002110

 11 B s       :     0.035371  s :     0.035371
      pz      :     0.122903  p :     0.276239
      px      :     0.029834
      py      :     0.123502
      dz2     :     0.000198  d :     0.005480
      dxz     :     0.003266
      dyz     :    -0.000792
      dx2y2   :    -0.000454
      dxy     :     0.003262



                      *****************************
                      * MAYER POPULATION ANALYSIS *
                      *****************************

  NA   - Mulliken gross atomic population
  ZA   - Total nuclear charge
  QA   - Mulliken gross atomic charge
  VA   - Mayer's total valence
  BVA  - Mayer's bonded valence
  FA   - Mayer's free valence

  ATOM       NA         ZA         QA         VA         BVA        FA
  0 B      5.2071     5.0000    -0.2071     3.8193     3.4837     0.3356
  1 B      5.5454     5.0000    -0.5454     4.9151     4.7071     0.2080
  2 B      4.4312     5.0000     0.5688     2.6629     2.6990    -0.0361
  3 B      5.0102     5.0000    -0.0102     3.8698     3.7887     0.0811
  4 B      5.4631     5.0000    -0.4631     4.7880     4.6287     0.1593
  5 B      4.3433     5.0000     0.6567     2.0325     2.0032     0.0294
  6 B      5.2084     5.0000    -0.2084     3.8204     3.4853     0.3351
  7 B      4.3430     5.0000     0.6570     2.0339     2.0048     0.0291
  8 B      5.4642     5.0000    -0.4642     4.7886     4.6292     0.1594
  9 B      5.0085     5.0000    -0.0085     3.8685     3.7872     0.0812
 10 B      4.4313     5.0000     0.5687     2.6624     2.6986    -0.0362
 11 B      5.5444     5.0000    -0.5444     4.9145     4.7068     0.2076

  Mayer bond orders larger than 0.100000
B(  0-B ,  1-B ) :   1.7471 B(  0-B ,  2-B ) :  -0.6597 B(  0-B ,  3-B ) :   0.3521 
B(  0-B ,  4-B ) :   0.3182 B(  0-B ,  5-B ) :   0.1581 B(  0-B ,  6-B ) :   0.5204 
B(  0-B ,  7-B ) :   0.1604 B(  0-B ,  8-B ) :   0.3189 B(  0-B ,  9-B ) :   0.3508 
B(  0-B , 10-B ) :  -0.5007 B(  0-B , 11-B ) :   0.7180 B(  1-B ,  2-B ) :   0.6816 
B(  1-B ,  3-B ) :   0.1812 B(  1-B ,  4-B ) :   0.4746 B(  1-B ,  6-B ) :   0.7203 
B(  1-B ,  8-B ) :   0.4731 B(  1-B ,  9-B ) :   0.1806 B(  1-B , 11-B ) :   0.4953 
B(  2-B ,  3-B ) :   0.4567 B(  2-B ,  4-B ) :   0.2158 B(  2-B ,  5-B ) :   0.7333 
B(  2-B ,  6-B ) :  -0.5018 B(  2-B ,  7-B ) :   0.7337 B(  2-B ,  8-B ) :   0.2156 
B(  2-B ,  9-B ) :   0.4585 B(  2-B , 10-B ) :   0.4619 B(  3-B ,  4-B ) :   1.4763 
B(  3-B ,  5-B ) :  -0.4748 B(  3-B ,  6-B ) :   0.3520 B(  3-B ,  7-B ) :  -0.3749 
B(  3-B ,  8-B ) :   0.4574 B(  3-B ,  9-B ) :   0.7240 B(  3-B , 10-B ) :   0.4577 
B(  3-B , 11-B ) :   0.1810 B(  4-B ,  5-B ) :   0.4819 B(  4-B ,  6-B ) :   0.3193 
B(  4-B ,  7-B ) :  -0.1923 B(  4-B ,  8-B ) :   0.3898 B(  4-B ,  9-B ) :   0.4558 
B(  4-B , 10-B ) :   0.2160 B(  4-B , 11-B ) :   0.4733 B(  5-B ,  6-B ) :   0.1587 
B(  5-B ,  7-B ) :   0.9280 B(  5-B ,  8-B ) :  -0.1930 B(  5-B ,  9-B ) :  -0.3735 
B(  5-B , 10-B ) :   0.7334 B(  6-B ,  7-B ) :   0.1577 B(  6-B ,  8-B ) :   0.3194 
B(  6-B ,  9-B ) :   0.3519 B(  6-B , 10-B ) :  -0.6605 B(  6-B , 11-B ) :   1.7478 
B(  7-B ,  8-B ) :   0.4818 B(  7-B ,  9-B ) :  -0.4735 B(  7-B , 10-B ) :   0.7333 
B(  8-B ,  9-B ) :   1.4757 B(  8-B , 10-B ) :   0.2159 B(  8-B , 11-B ) :   0.4746 
B(  9-B , 10-B ) :   0.4567 B(  9-B , 11-B ) :   0.1802 B( 10-B , 11-B ) :   0.6817 


-------
TIMINGS
-------

Total SCF time: 0 days 0 hours 0 min 12 sec 

Total time                  ....      12.603 sec
Sum of individual times     ....      11.959 sec  ( 94.9%)

SCF preparation             ....       0.103 sec  (  0.8%)
Fock matrix formation       ....      10.242 sec  ( 81.3%)
  Startup                   ....       0.066 sec  (  0.6% of F)
  Split-RI-J                ....       0.896 sec  (  8.7% of F)
  XC integration            ....       9.192 sec  ( 89.7% of F)
    Basis function eval.    ....       0.621 sec  (  6.8% of XC)
    Density eval.           ....       3.100 sec  ( 33.7% of XC)
    XC-Functional eval.     ....       0.164 sec  (  1.8% of XC)
    XC-Potential eval.      ....       4.168 sec  ( 45.3% of XC)
Diagonalization             ....       0.000 sec  (  0.0%)
Density matrix formation    ....       0.367 sec  (  2.9%)
Total Energy calculation    ....       0.192 sec  (  1.5%)
Population analysis         ....       0.070 sec  (  0.6%)
Orbital Transformation      ....       0.056 sec  (  0.4%)
Orbital Orthonormalization  ....       0.000 sec  (  0.0%)
DIIS solution               ....       0.359 sec  (  2.8%)
SOSCF solution              ....       0.570 sec  (  4.5%)
Finished LeanSCF after  12.7 sec

Maximum memory used throughout the entire LEANSCF-calculation: 13.6 MB


           ************************************************************
           *        Program running with 8 parallel MPI-processes     *
           *              working on a common directory               *
           ************************************************************

------------------------------------------------------------------------------
                         ORCA PROPERTY INTEGRAL CALCULATIONS
------------------------------------------------------------------------------

GBWName                                   ... b12_hexagonal_prism_m5_spinfreq.gbw
Number of atoms                           ...     12
Number of basis functions                 ...    228
Max core memory                           ...   1500 MB

Dipole integrals                          ... YES
Quadrupole integrals                      ...  NO
Linear momentum integrals                 ...  NO
Angular momentum integrals                ...  NO
Higher moments length integrals           ...  NO
Higher moments velocity integrals         ...  NO
Kinetic energy integrals                  ...  NO
GIAO right hand sides                     ...  NO
GIAO dipole derivative integrals          ...  NO
SOC integrals                             ...  NO
EPR diamagnetic integrals (GIAO)          ...  NO
EPR gauge integrals                       ...  NO
Field gradient integrals                  ...  NO (   0 nuclei)
Spin-dipole/Fermi contact integrals       ...  NO (   0 nuclei)
Contact density integrals                 ...  NO (   0 nuclei)
Nucleus-orbit integrals                   ...  NO (   0 nuclei)
Geometric perturbations                   ... YES (  12 nuclei)

Choice of electric origin   ... Center of mass
Position of electric origin ... (  0.0000,  0.0000, -0.0000) 
Choice of magnetic origin   ... GIAO
Position of magnetic origin ... (  0.0000,  0.0000,  0.0000) 

Calculating integrals                     ... Electric Dipole (Length)     done (  0.0 sec)
Calculating integrals                     ... Geometrical perturbation right hand sides

-----------------------
GEOMETRIC PERTURBATIONS (12 nuclei)
-----------------------

MaxCore                            ...   1500 MB
Number of batches                  ...      1

BATCH   0: Atoms    0 -   11 ( 36 perturbations)
   => H(core) and overlap derivative integrals     ... done (     0.1 sec)
   => Making and storing internal U-coefficients   ... done (     0.1 sec)
   => RI-J derivative integrals                    ... done (     0.5 sec)
   => RI-J response operators                      ... done (     0.2 sec)
   => XC derivative integrals                      ... done (    55.0 sec)
   => XC response operators                        ... done (    15.4 sec)
   => Completing and storing right hand sides      ... done (     0.0 sec)
   => Total time for right hand sides =  71.7 sec

  geometrical perturbations done ( 71.7 sec)

Property integrals calculated in  71.8 sec

Maximum memory used throughout the entire PROPINT-calculation: 112.3 MB


-------------------------------------------------------------------------------
                          DFT DISPERSION CORRECTION                            
                                                                               
                                DFTD4 V3.4.0                                   
-------------------------------------------------------------------------------
The R2SCAN3C composite method is recognized
Using three-body term ABC
Active option DFTDOPT                   ...         5   

-------------------------   ----------------
Dispersion correction           -0.005689793
-------------------------   ----------------

------------------   -----------------
gCP correction             0.011566352
------------------   -----------------

-------------------------   --------------------
FINAL SINGLE POINT ENERGY      -297.730327963525
-------------------------   --------------------



           ************************************************************
           *        Program running with 8 parallel MPI-processes     *
           *              working on a common directory               *
           ************************************************************
------------------------------------------------------------------------------
                            ORCA SCF RESPONSE CALCULATION
------------------------------------------------------------------------------

GBWName                                 ... b12_hexagonal_prism_m5_spinfreq.gbw
Number of atoms                         ...     12
Number of basis functions               ...    228
Max core memory                         ...   1500 MB

Electric field perturbation             ...  NO
Quadrupolar field perturbation          ...  NO
Magnetic field perturbation (no GIAO)   ...  NO
Magnetic field perturbation (with GIAO) ...  NO
Linear momentum (velocity) perturbation ...  NO
Spin-orbit coupling perturbation        ...  NO
Choice of electric origin               ... Center of mass
Position of electric origin             ...     0.000000     0.000000    -0.000000
Choice of magnetic origin               ... GIAO
Position of magnetic origin             ...     0.000000     0.000000     0.000000
Nuclear geometric perturbations         ... YES (  36 perturbations)
Nucleus-orbit perturbations             ...  NO (   0 perturbations)
Spin-dipole/Fermi contact perturbations ...  NO (   0 perturbations)

Total number of real perturbations      ...     36
Total number of imaginary perturbations ...      0
Total number of triplet perturbations   ...      0
Total number of SOC perturbations       ...      0

Using XC Grid                  ... (b12_hexagonal_prism_m5_spinfreq.grid_cpscf.tmp) 
Recalculating density on grid  ... (b12_hexagonal_prism_m5_spinfreq.grho_cpscf0.tmp) done
Calculating the xc-kernel      ... (b12_hexagonal_prism_m5_spinfreq.fxc_cpscf0.tmp) done

                                **********************
                                * REAL PERTURBATIONS *
                                **********************



-------------------
SHARK CP-SCF DRIVER
-------------------

Dimension of the orbital basis          ...    228
Dimension of the CPSCF-problem          ...  11872
Number of operators                     ...      2
Max. number of iterations               ...    128
Convergence Tolerance                   ... 1.0e-04
Number of perturbations                 ...     36
Perturbation type                       ... REAL

----------------------------
POPLE LINEAR EQUATION SOLVER
----------------------------

  ITERATION   0:   ||err||_max =   1.2830e+00 (   4.6 sec   0/ 36 done)
  ITERATION   1:   ||err||_max =   2.4950e-01 (   4.3 sec   0/ 36 done)
  ITERATION   2:   ||err||_max =   2.4327e-01 (   4.7 sec   0/ 36 done)
  ITERATION   3:   ||err||_max =   3.2875e-01 (   4.5 sec   0/ 36 done)
  ITERATION   4:   ||err||_max =   1.6287e-01 (   4.6 sec   0/ 36 done)
  ITERATION   5:   ||err||_max =   1.1448e-01 (   4.8 sec   0/ 36 done)
  ITERATION   6:   ||err||_max =   4.5727e-02 (   4.8 sec   0/ 36 done)
  ITERATION   7:   ||err||_max =   3.7005e-02 (   4.6 sec   0/ 36 done)
  ITERATION   8:   ||err||_max =   1.5515e-02 (   4.8 sec   0/ 36 done)
  ITERATION   9:   ||err||_max =   1.2053e-02 (   4.7 sec   0/ 36 done)
  ITERATION  10:   ||err||_max =   6.5438e-03 (   5.1 sec   0/ 36 done)
  ITERATION  11:   ||err||_max =   3.4666e-03 (   5.1 sec   0/ 36 done)
  ITERATION  12:   ||err||_max =   1.8063e-03 (   5.6 sec   1/ 36 done)
  ITERATION  13:   ||err||_max =   8.4547e-04 (   6.0 sec   4/ 36 done)
  ITERATION  14:   ||err||_max =   4.6689e-04 (   5.0 sec   4/ 36 done)
  ITERATION  15:   ||err||_max =   2.3493e-04 (   5.7 sec  13/ 36 done)
  ITERATION  16:   ||err||_max =   1.0670e-04 (   3.9 sec  32/ 36 done)
  ITERATION  17:   ||err||_max =   4.1800e-05 (   1.0 sec  36/ 36 done)

CP-SCF equations solved in  89.6 sec
Response densities calculated in   0.0 sec

Maximum memory used throughout the entire SCFRESP-calculation: 74.5 MB


           ************************************************************
           *        Program running with 8 parallel MPI-processes     *
           *              working on a common directory               *
           ************************************************************

------------------------------------------------------------------------------
                              ORCA PROPERTY CALCULATIONS
------------------------------------------------------------------------------

GBWName                                 ... b12_hexagonal_prism_m5_spinfreq.gbw
Number of atoms                         ...     12
Number of basis functions               ...    228
Max core memory                         ...   1500 MB

Electric properties:
Dipole moment                           ... YES
Quadrupole moment                       ...  NO
Static polarizability (Dipole/Dipole)   ...  NO
Static polarizability (Dipole/Quad.)    ...  NO
Static polarizability (Quad./Quad.)     ...  NO
Static polarizability (Velocity)        ...  NO
Static hyperpolarizability              ...  NO

Atomic electric properties:
Dipole moment                           ...  NO
Quadrupole moment                       ...  NO
Static polarizability                   ...  NO

Choice of electric origin               ... Center of mass
Position of electric origin             ...     0.000000     0.000000    -0.000000

General magnetic properties:
Magnetizability                         ...  NO

EPR properties:
g-Tensor (aka g-matrix)                 ...  NO
Zero-Field splitting spin-orbit         ...  NO
Zero-field splitting spin-spin          ...  NO
Hyperfine couplings                     ...  NO (   0 nuclei)
Quadrupole couplings                    ...  NO (   0 nuclei)
Contact density                         ...  NO (   0 nuclei)

NMR properties:
Chemical shifts                         ...  NO (   0 nuclei)
Spin-rotation constants                 ...  NO (   0 nuclei)
Spin-spin couplings                     ...  NO (   0 nuclei,    0 pairs)

Choice of magnetic origin               ... GIAO
Position of magnetic origin             ...     0.000000     0.000000     0.000000

Properties with geometric perturbations:
SCF Hessian                             ... YES
IR spectrum                             ... YES
VCD spectrum                            ...  NO
X-ray spectroscopy properties:
SCF XES/XAS/RIXS spectra                ...  NO

SCF SOC stabilization energy            ...  NO
Diagonal Born-Oppenheimer correction    ...  NO

-------------
DIPOLE MOMENT
-------------

Method             : SCF
Type of density    : Electron Density
Multiplicity       :   5
Irrep              :   0
Energy             :  -297.7362045224921872 Eh
Basis              : AO
                                X                 Y                 Z
Electronic contribution:     -0.719860048       0.001918491       0.000055350
Nuclear contribution   :      0.000000000       0.000000000      -0.000000000
                        -----------------------------------------
Total Dipole Moment    :     -0.719860048       0.001918491       0.000055350
                        -----------------------------------------
Magnitude (a.u.)       :      0.719862606
Magnitude (Debye)      :      1.829745333



--------------------
Rotational spectrum 
--------------------
 
Rotational constants in cm-1:             0.104981             0.051954             0.050918 
Rotational constants in MHz :          3147.246450          1557.555291          1526.497238 

Dipole components along the rotational axes: 
x,y,z [a.u.] :    -0.719863    -0.000288     0.000160 
x,y,z [Debye]:    -1.829745    -0.000732     0.000406 

 

Dipole moment calculation done in   0.0 sec 

-----------
SCF HESSIAN
-----------

Occupied/Occupied contributions to the Hessian:
   => Occupied/Occupied contributions              ... done (  0.0 sec)
Perturbed density contributions to the Hessian:
   => Perturbed density contributions              ... done (  0.0 sec)
Explicit contributions to the Hessian:
   => Nuclear repulsion Hessian                    ... done (  0.0 sec)
   => HCore and overlap Hessian                    ... done (  0.7 sec)
   => RI-J Hessian                                 ... done (  1.1 sec)
   => XC-Hessian                                   ... done ( 14.4 sec)
   => Van der Waals-Hessian                        ... done (  0.3 sec)
   => GCP-Hessian                                  ... done (  0.0 sec)
   => Explicit contributions done
Dipole derivatives                                 ... done (  0.0 sec)
Mass weighting the Hessian           ... done
Calculating normal modes             ... done
Scaling frequencies                  ... done

-----------------------
VIBRATIONAL FREQUENCIES
-----------------------

Scaling factor for frequencies =  1.000000000  (already applied!)

     0:       0.00 cm**-1
     1:       0.00 cm**-1
     2:       0.00 cm**-1
     3:       0.00 cm**-1
     4:       0.00 cm**-1
     5:       0.00 cm**-1
     6:     226.11 cm**-1
     7:     244.97 cm**-1
     8:     274.96 cm**-1
     9:     313.55 cm**-1
    10:     396.00 cm**-1
    11:     402.17 cm**-1
    12:     403.63 cm**-1
    13:     459.64 cm**-1
    14:     463.96 cm**-1
    15:     500.84 cm**-1
    16:     547.86 cm**-1
    17:     555.84 cm**-1
    18:     568.25 cm**-1
    19:     584.99 cm**-1
    20:     615.91 cm**-1
    21:     628.62 cm**-1
    22:     672.94 cm**-1
[...]
     24      -0.003719   0.002023   0.224579   0.070534   0.007953  -0.457957
     25      -0.156796   0.017551  -0.052862   0.150836  -0.009221  -0.170258
     26      -0.156258   0.021777   0.048322  -0.151892  -0.015539   0.171611
     27      -0.002613   0.005791   0.204231  -0.101486  -0.002843   0.264578
     28      -0.280425   0.208601   0.138785   0.160452   0.166886   0.137238
     29      -0.273607   0.203335  -0.153705  -0.161977   0.174167  -0.133071
     30       0.002106  -0.105585  -0.025351  -0.378380   0.249703   0.005584
     31       0.346914  -0.209979   0.261826  -0.026055  -0.101763   0.037468
     32      -0.351788  -0.213933   0.252617  -0.029145  -0.101628  -0.040995
     33       0.000432   0.300270  -0.096315  -0.001003   0.353914   0.005218
     34       0.008210   0.050307   0.064532  -0.180210   0.043687   0.019796
     35      -0.008928   0.050003   0.062754  -0.180563   0.045246  -0.018594
                 30         31         32         33         34         35    
      0       0.154564  -0.244368   0.001215   0.133802  -0.131418   0.219324
      1       0.254787  -0.008207  -0.160294  -0.014950   0.047811   0.016465
      2       0.255871  -0.007877   0.161934  -0.014821   0.047949   0.017150
      3       0.157558   0.219343  -0.000927  -0.404534   0.318735  -0.364327
      4      -0.037629  -0.084292   0.005768   0.009915  -0.037567   0.025317
      5      -0.036789  -0.083757  -0.005238   0.008372  -0.036403   0.024365
      6      -0.073195   0.133426  -0.000120   0.470935  -0.172483   0.317644
      7      -0.059231   0.158536   0.051180   0.159045  -0.015163   0.109585
      8      -0.059449   0.160501  -0.052247   0.161189  -0.015743   0.111126
      9       0.174183  -0.152533  -0.019235  -0.000126  -0.273216  -0.243549
     10      -0.152155  -0.365038  -0.085212  -0.149168   0.157765  -0.056898
     11       0.151692   0.368272   0.085525  -0.149178  -0.157368   0.057879
     12      -0.058686  -0.006569  -0.350910  -0.000090   0.428745   0.276358
     13       0.083124  -0.043742   0.026373   0.003347  -0.051611  -0.020712
     14      -0.083301   0.043947  -0.025089   0.003366   0.050426   0.020144
     15      -0.354814   0.050130   0.499479   0.000193  -0.169781  -0.204920
     16      -0.206798   0.074693   0.161660  -0.009018   0.006511  -0.060203
     17       0.209970  -0.074503  -0.164799  -0.008956  -0.005430   0.061071
     18       0.152172  -0.244095  -0.000721  -0.134342  -0.132151   0.218985
     19      -0.255026   0.009018  -0.160833  -0.014002  -0.047222  -0.017915
     20      -0.256528   0.008638   0.161217  -0.014539  -0.047704  -0.017231
     21      -0.351856   0.048044  -0.499545   0.000767  -0.170343  -0.205294
     22       0.208207  -0.074277   0.165512  -0.009150  -0.005298   0.061502
     23      -0.209275   0.073932  -0.165755  -0.008680   0.005225  -0.061241
     24      -0.060348  -0.005036   0.349952  -0.001732   0.429995   0.277235
     25      -0.082826   0.043824   0.023910   0.003129   0.049226   0.019206
     26       0.083559  -0.043999  -0.024684   0.003394  -0.050820  -0.020383
     27       0.174880  -0.150572   0.020846   0.000236  -0.274441  -0.243520
     28       0.151537   0.365760  -0.085794  -0.148809  -0.156662   0.058031
     29      -0.152122  -0.367840   0.085862  -0.149730   0.157443  -0.057825
     30      -0.072636   0.132661  -0.000742  -0.469751  -0.173744   0.315717
     31       0.059334  -0.159200   0.052172   0.162271   0.016686  -0.111382
     32       0.059639  -0.160852  -0.051170   0.161351   0.016167  -0.110925
     33       0.158179   0.219569   0.000708   0.404642   0.320101  -0.363653
     34       0.036678   0.082925   0.005558   0.007390   0.035523  -0.022996
     35       0.036732   0.083538  -0.005555   0.008231   0.036258  -0.024130


-----------
IR SPECTRUM
-----------

 Mode   freq       eps      Int      T**2         TX        TY        TZ
       cm**-1   L/(mol*cm) km/mol    a.u.
----------------------------------------------------------------------------
  6:    226.11   0.000180    0.91  0.000249  (-0.000115 -0.011675 -0.010595)
  7:    244.97   0.000239    1.21  0.000304  ( 0.000178  0.012055 -0.012592)
  8:    274.96   0.001582    7.99  0.001795  (-0.042368  0.000137  0.000068)
  9:    313.55   0.000001    0.00  0.000001  (-0.000935  0.000061 -0.000136)
 10:    396.00   0.004191   21.18  0.003303  ( 0.000099  0.040305 -0.040970)
 11:    402.17   0.000001    0.00  0.000000  ( 0.000496  0.000374  0.000242)
 12:    403.63   0.001578    7.97  0.001220  ( 0.000183  0.025261  0.024118)
 13:    459.64   0.000340    1.72  0.000231  ( 0.015192 -0.000249  0.000051)
 14:    463.96   0.000000    0.00  0.000000  (-0.000272  0.000073 -0.000114)
 15:    500.84   0.005102   25.78  0.003179  (-0.000203 -0.040001  0.039731)
 16:    547.86   0.000891    4.50  0.000507  ( 0.022521 -0.000201  0.000091)
 17:    555.84   0.000616    3.12  0.000346  ( 0.000016 -0.012729 -0.013567)
 18:    568.25   0.003985   20.14  0.002188  ( 0.000235  0.033470 -0.032682)
 19:    584.99   0.000281    1.42  0.000150  ( 0.012246 -0.000116  0.000071)
 20:    615.91   0.000395    1.99  0.000200  ( 0.000102 -0.009592 -0.010387)
 21:    628.62   0.000283    1.43  0.000141  ( 0.011855 -0.000027  0.000120)
 22:    672.94   0.001777    8.98  0.000824  (-0.000124 -0.020383  0.020212)
 23:    692.47   0.000000    0.00  0.000000  ( 0.000394  0.000054 -0.000013)
 24:    737.50   0.000000    0.00  0.000000  (-0.000154 -0.000043 -0.000030)
 25:    746.12   0.000284    1.44  0.000119  (-0.000406  0.007786  0.007627)
 26:    747.26   0.001909    9.65  0.000797  (-0.028236 -0.000049 -0.000129)
 27:    786.94   0.000401    2.03  0.000159  (-0.012611  0.000063 -0.000004)
 28:    849.38   0.001063    5.37  0.000391  ( 0.000206  0.014039  0.013909)
 29:    882.79   0.000018    0.09  0.000007  ( 0.000104  0.002154 -0.001362)
 30:    982.61   0.001686    8.52  0.000536  (-0.023141  0.000131 -0.000029)
 31:   1026.13   0.012720   64.28  0.003868  ( 0.062196 -0.000228  0.000019)
 32:   1051.60   0.002034   10.28  0.000603  (-0.000254 -0.017486  0.017252)
 33:   1175.25   0.000025    0.13  0.000007  ( 0.000054 -0.001918 -0.001700)
 34:   1180.53   0.000600    3.03  0.000159  ( 0.012596 -0.000057  0.000005)
 35:   1255.46   0.000004    0.02  0.000001  (-0.001011 -0.000021  0.000007)

* The epsilon (eps) is given for a Dirac delta lineshape.
** The dipole moment derivative (T) already includes vibrational overlap.

The first frequency considered to be a vibration is 6
The total number of vibrations considered is 30


--------------------------
THERMOCHEMISTRY AT 298.15K
--------------------------

Temperature         ...   298.15 K
Pressure            ...     1.00 atm
Total Mass          ...   129.72 AMU
Quasi RRHO          ...     True
Cut-Off Frequency   ...     1.00 cm^-1

Throughout the following assumptions are being made:
  (1) The electronic state is orbitally nondegenerate
      but the spin degeneracy is treated
  (2) There are no thermally accessible electronically excited states
  (3) Hindered rotations indicated by low frequency modes are not
      treated as such but are treated as vibrations and this may
      cause some error
  (4) All equations used are the standard statistical mechanics
      equations for an ideal gas
  (5) All vibrations are strictly harmonic

freq.     226.11  E(vib)   ...       0.33 
freq.     244.97  E(vib)   ...       0.31 
freq.     274.96  E(vib)   ...       0.28 
freq.     313.55  E(vib)   ...       0.25 
freq.     396.00  E(vib)   ...       0.20 
freq.     402.17  E(vib)   ...       0.19 
freq.     403.63  E(vib)   ...       0.19 
freq.     459.64  E(vib)   ...       0.16 
freq.     463.96  E(vib)   ...       0.16 
freq.     500.84  E(vib)   ...       0.14 
freq.     547.86  E(vib)   ...       0.12 
freq.     555.84  E(vib)   ...       0.12 
freq.     568.25  E(vib)   ...       0.11 
freq.     584.99  E(vib)   ...       0.11 
freq.     615.91  E(vib)   ...       0.10 
freq.     628.62  E(vib)   ...       0.09 
freq.     672.94  E(vib)   ...       0.08 
freq.     692.47  E(vib)   ...       0.07 
freq.     737.50  E(vib)   ...       0.06 
freq.     746.12  E(vib)   ...       0.06 
freq.     747.26  E(vib)   ...       0.06 
freq.     786.94  E(vib)   ...       0.05 
freq.     849.38  E(vib)   ...       0.04 
freq.     882.79  E(vib)   ...       0.04 
freq.     982.61  E(vib)   ...       0.02 
freq.    1026.13  E(vib)   ...       0.02 
freq.    1051.60  E(vib)   ...       0.02 
freq.    1175.25  E(vib)   ...       0.01 
freq.    1180.53  E(vib)   ...       0.01 
freq.    1255.46  E(vib)   ...       0.01 

------------
INNER ENERGY
------------

The inner energy is: U= E(el) + E(ZPE) + E(vib) + E(rot) + E(trans)
    E(el)   - is the total energy from the electronic structure calculation
              = E(kin-el) + E(nuc-el) + E(el-el) + E(nuc-nuc)
    E(ZPE)  - the the zero temperature vibrational energy from the frequency calculation
    E(vib)  - the the finite temperature correction to E(ZPE) due to population
              of excited vibrational states
    E(rot)  - is the rotational thermal energy
    E(trans)- is the translational thermal energy

Summary of contributions to the inner energy U:
Electronic energy                ...   -297.73032796 Eh
Zero point energy                ...      0.04550478 Eh      28.55 kcal/mol
Thermal vibrational correction   ...      0.00543522 Eh       3.41 kcal/mol
Thermal rotational correction    ...      0.00141627 Eh       0.89 kcal/mol
Thermal translational correction ...      0.00141627 Eh       0.89 kcal/mol
-----------------------------------------------------------------------
Total thermal energy                   -297.67655542 Eh


Summary of corrections to the electronic energy:
(perhaps to be used in another calculation)
Total thermal correction                  0.00826776 Eh       5.19 kcal/mol
Non-thermal (ZPE) correction              0.04550478 Eh      28.55 kcal/mol
-----------------------------------------------------------------------
Total correction                          0.05377255 Eh      33.74 kcal/mol


--------
ENTHALPY
--------

The enthalpy is H = U + kB*T
                kB is Boltzmann's constant
Total thermal energy              ...   -297.67655542 Eh 
Thermal Enthalpy correction       ...      0.00094421 Eh       0.59 kcal/mol
-----------------------------------------------------------------------
Total Enthalpy                    ...   -297.67561121 Eh


Note: Only C1 symmetry has been detected, increase convergence thresholds 
      if your molecule has a higher symmetry. Symmetry factor of 1.0 is   
      used for the rotational entropy correction. 
 

Note: Rotational entropy computed according to Herzberg 
Infrared and Raman Spectra, Chapter V,1, Van Nostrand Reinhold, 1945 
Point Group:  C1, Symmetry Number:   1  
Rotational constants in cm-1:     0.104981     0.051954     0.050919 

Vibrational entropy computed according to the QRRHO of S. Grimme
Chem.Eur.J. 2012 18 9955 using a reference frequency of 100.0 cm-1


-------
ENTROPY
-------

The entropy contributions are T*S = T*(S(el)+S(vib)+S(rot)+S(trans))
     S(el)   - electronic entropy
     S(vib)  - vibrational entropy
     S(rot)  - rotational entropy
     S(trans)- translational entropy
The entropies will be listed as multiplied by the temperature to get
units of energy

Electronic entropy                ...      0.00151960 Eh      0.95 kcal/mol
Vibrational entropy               ...      0.00803985 Eh      5.05 kcal/mol
Rotational entropy                ...      0.01337671 Eh      8.39 kcal/mol
Translational entropy             ...      0.01923977 Eh     12.07 kcal/mol
-----------------------------------------------------------------------
Final entropy term                ...      0.04217593 Eh     26.47 kcal/mol

In case the symmetry of your molecule has not been determined correctly
or in case you have a reason to use a different symmetry number we print 
out the resulting rotational entropy values for sn=1,12:

 non-linear molecules -----------------------------------
|  sn= 1 | S(rot)=       0.01337671 Eh      8.39 kcal/mol|
|  sn= 2 | S(rot)=       0.01272225 Eh      7.98 kcal/mol|
|  sn= 3 | S(rot)=       0.01233942 Eh      7.74 kcal/mol|
|  sn= 4 | S(rot)=       0.01206780 Eh      7.57 kcal/mol|
|  sn= 5 | S(rot)=       0.01185711 Eh      7.44 kcal/mol|
|  sn= 6 | S(rot)=       0.01168496 Eh      7.33 kcal/mol|
|  sn= 7 | S(rot)=       0.01153942 Eh      7.24 kcal/mol|
|  sn= 8 | S(rot)=       0.01141334 Eh      7.16 kcal/mol|
|  sn= 9 | S(rot)=       0.01130213 Eh      7.09 kcal/mol|
|  sn=10 | S(rot)=       0.01120265 Eh      7.03 kcal/mol|
|  sn=11 | S(rot)=       0.01111266 Eh      6.97 kcal/mol|
|  sn=12 | S(rot)=       0.01103051 Eh      6.92 kcal/mol|
 linear molecules ---------------------------------------
|  Dinfh | S(rot)=       0.00813713 Eh      5.11 kcal/mol|
|  Cinfv | S(rot)=       0.00879159 Eh      5.52 kcal/mol|
 --------------------------------------------------------


-------------------
GIBBS FREE ENERGY
-------------------

The Gibbs free energy is G = H - T*S

Total enthalpy                    ...   -297.67561121 Eh 
Total entropy correction          ...     -0.04217593 Eh    -26.47 kcal/mol
-----------------------------------------------------------------------
Final Gibbs free energy         ...   -297.71778714 Eh

For completeness - the Gibbs free energy minus the electronic energy
G-E(el)                           ...      0.01254082 Eh      7.87 kcal/mol


Maximum memory used throughout the entire PROP-calculation: 38.2 MB
Converting b12_hexagonal_prism_m5_spinfreq.gbw to JSON (see b12_hexagonal_prism_m5_spinfreq.2jsonout) ... done

--------------------------------
SUGGESTED CITATIONS FOR THIS RUN
--------------------------------

Below you find a list of papers that are relevant to this ORCA run
We neither can nor want to force you to cite these papers, but we appreciate if you do
You receive ORCA, which is the product of decades of hard work by many enthusiastic individuals, for free
The only thing we kindly ask in return is that you cite our papers,
We deeply appreciate it, if you show your appreciation for ORCA by not just citing the generic ORCA reference.

Please note that relegating all ORCA citations to the supporting information does *not* help us.
SI sections are not indexed - citations you put there will not count into any citation statistics
But we need these citations in order to attract the funding resources that allow us to do what we are doing

Therefore, if you are a happy ORCA user, please consider citing a few of the papers listed below in the main body of your paper

In addition to the list printed below, the program has created the file b12_hexagonal_prism_m5_spinfreq.bibtex that contains the list in bibtex format
You can import this file easily into all common literature databanks and citation aid programs

It goes without saying that in many instances, there are alternative algorithms to achieve similar
results as the ones you have gotten from ORCA. It is, of course, also the case that in some instances
ORCA just re-implements algorithms worked out by others. We are fully aware of that and we are also
fully appreciative of our colleagues work. Hence this citation list should not be read as indicating
that the listed papers, which are focused on our own work, are the only ones worth citing. It simply
meant to make it easier for users to cite ORCA specific papers. It is not a substitute for doing your
own literature research and citing the relevant literature in a scientifically appropriate manner.

List of essential papers. We consider these as the minimum necessary citations

  1. Grimme, S.; Hansen, A.; Ehlert, S.; Mewes, J.
     r2SCAN-3c: A 'Swiss army knife' composite electronic-structure method
     J. Chem. Phys. 2021 154 , 064103
     doi.org/10.1063/5.0040021
  2. Neese, F.
     Software update: the ORCA program system, version 6.0
     WIRES Comput. Molec. Sci. 2025 15(1), e70019
     doi.org/10.1002/wcms.70019

List of papers to cite with high priority. The work reported in these papers was absolutely
necessary for this run to complete.
Our perspective: the developers of density functionals and basis sets usually get cited in chemistry papers
Good! But without the algorithms to do something with them, the functionals or basis sets would not do anything.
Hence, in our opinion, the algorithm design and method developments papers are equally worthy of getting cited

  1. Neese, F.
     An improvement of the resolution of the identity approximation for the formation of the Coulomb matrix
     J. Comp. Chem. 2003 24(14), 1740-1747
     doi.org/10.1002/jcc.10318
  2. Bykov, D.; Petrenko, T.; Izsak, R.; Kossmann, S.; Becker, U.; Valeev, E.; Neese, F.
     Efficient implementation of the analytic second derivatives of Hartree-Fock and hybrid DFT energies: a detailed analysis of different approximations
     Molec. Phys. 2015 113 , 1961-1977
     doi.org/10.1080/00268976.2015.1025114
  3. Caldeweyher, E.; Bannwarth, C.; Grimme, S.
     Extension of the D3 dispersion coefficient model
     J. Chem. Phys. 2017 147 , 034112
     doi.org/10.1063/1.4993215
  4. Lehtola, S.; Steigemann, C.; Oliveira, M.; Marques, M.
     Recent developments in Libxc - A comprehensive library of functionals for density functional theory
     Software X 2018 7 , 
     doi.org/10.1016/j.softx.2017.11.002
  5. Caldeweyher, E.; Ehlert, S.; Hansen, A.; Neugebauer, H.; Spicher, S.; Bannwarth, C.; Grimme, S.
     A generally applicable atomic-charge dependent London dispersion correction
     J. Chem. Phys. 2019 150 , 154122
     doi.org/10.1063/1.5090222
  6. Neese, F.
     The SHARK Integral Generation and Digestion System
     J. Comp. Chem. 2022 44(3), 381
     doi.org/10.1002/jcc.26942

List of suggested additional citations. These are papers that are important in the 'surrounding' of 
of this run, or papers that preceded the highly important papers. If you like your results we are grateful for a citation.

  1. Neese, F.
     The ORCA program system
     WIRES Comput. Molec. Sci. 2012 2(1), 73-78
     doi.org/10.1002/wcms.81
  2. Neese, F.
     Software update: the ORCA program system, version 4.0
     WIRES Comput. Molec. Sci. 2018 8(1), 1-6
     doi.org/10.1002/wcms.1327
  3. Neese, F.; Wennmohs, F.; Becker, U.; Riplinger, C.
     The ORCA quantum chemistry program package
     J. Chem. Phys. 2020 152(22), 224108
     doi.org/10.1063/5.0004608
  4. Neese, F.
     Software update: The ORCA program system—Version 5.0
     WIRES Comput. Molec. Sci. 2022 12(1), e1606
     doi.org/10.1002/wcms.1606

List of optional additional citations

  1. Neese, F.
     Approximate second-order SCF convergence for spin unrestricted wavefunctions
     Chem. Phys. Lett. 2000 325(1-3), 93-98
     doi.org/10.1016/s0009-2614(00)00662-x

Timings for individual modules:

Sum of individual times          ...      192.833 sec (=   3.214 min)
Startup calculation              ...        0.576 sec (=   0.010 min)   0.3 %
SCF iterations                   ...       13.239 sec (=   0.221 min)   6.9 %
Property integrals               ...       72.009 sec (=   1.200 min)  37.3 %
SCF Response                     ...       90.239 sec (=   1.504 min)  46.8 %
Property calculations            ...       16.770 sec (=   0.279 min)   8.7 %
                             ****ORCA TERMINATED NORMALLY****
TOTAL RUN TIME: 0 days 0 hours 3 minutes 13 seconds 397 msec
