
                                 *****************
                                 * O   R   C   A *
                                 *****************

                                            #,                                       
                                            ###                                      
                                            ####                                     
                                            #####                                    
                                            ######                                   
                                           ########,                                 
                                     ,,################,,,,,                         
                               ,,#################################,,                 
                          ,,##########################################,,             
                       ,#########################################, ''#####,          
                    ,#############################################,,   '####,        
                  ,##################################################,,,,####,       
                ,###########''''           ''''###############################       
              ,#####''   ,,,,##########,,,,          '''####'''          '####       
            ,##' ,,,,###########################,,,                        '##       
           ' ,,###''''                  '''############,,,                           
         ,,##''                                '''############,,,,        ,,,,,,###''
      ,#''                                            '''#######################'''  
     '                                                          ''''####''''         
             ,#######,   #######,   ,#######,      ##                                
            ,#'     '#,  ##    ##  ,#'     '#,    #''#        ,####,    ,#,          
            ##       ##  ##   ,#'  ##            #'  '#       #'       ,# #          
            ##       ##  #######   ##           ,######,      #####,      #          
            '#,     ,#'  ##    ##  '#,     ,#' ,#      #,     #,   #      #          
             '#######'   ##     ##  '#######'  #'      '#     '####' #    #          



                #########################################################
                #                        -***-                          #
                #          Department of theory and spectroscopy        #
                #                                                       #
                #                      Frank Neese                      #
                #                                                       #
                #     Directorship, Architecture, Infrastructure        #
                #                    SHARK, DRIVERS                     #
                #        Core code/Algorithms in most modules           #
                #                                                       #
                #        Max Planck Institute fuer Kohlenforschung      #
                #                Kaiser Wilhelm Platz 1                 #
                #                 D-45470 Muelheim/Ruhr                 #
                #                      Germany                          #
                #                                                       #
                #                  All rights reserved                  #
                #                        -***-                          #
                #########################################################


                         Program Version 6.1.1  -  RELEASE   -


 With contributions from (in alphabetic order):
[Max-Planck-Institut fuer Kohlenforschung]                               
  Daniel Aravena         : Magnetic Suceptibility                        
  Michael Atanasov       : Ab Initio Ligand Field Theory (pilot matlab implementation)
  Alexander A. Auer      : GIAO ZORA, VPT2 properties, NMR spectrum      
  Ute Becker             : All parallelization in ORCA, NUMFREQ, NUMCALC 
  Giovanni Bistoni       : ED, misc. LED, open-shell LED, HFLD           
  Dmytro Bykov           : pre 5.0 version of the SCF Hessian            
  Marcos Casanova-Páez   : Triplet and SCS-CIS(D). UHF-(DLPNO)-IP/EA/STEOM-CCSD. UHF-CVS-IP/STEOM-CCSD   
  Vijay G. Chilkuri      : MRCI spin determinant printing, contributions to CSF-ICE 
  Pauline Colinet        : FMM embedding                                 
  Dipayan Datta          : RHF DLPNO-CCSD density                        
  Achintya Kumar Dutta   : EOM-CC, STEOM-CC                              
  Nicolas Foglia         : Exact transition moments, OPA infrastructure, MCD improvements    
  Dmitry Ganyushin       : Spin-Orbit,Spin-Spin,Magnetic field MRCI      
  Miquel Garcia-Rates    : C-PCM and meta-GGA Hessian, CCSD/C-PCM, Gaussian charge scheme 
  Tiago L. C. Gouveia    : GS-ROHF, GS-ROCIS                             
  Yang Guo               : DLPNO-NEVPT2, F12-NEVPT2, CIM, IAO-localization        
  Andreas Hansen         : Spin unrestricted coupled pair/coupled cluster methods 
  Ingolf Harden          : AUTO-CI MPn and infrastructure                
  Benjamin Helmich-Paris : MC-RPA, TRAH-(SCF,CASSCF), AVAS, COSX integrals, SCF dyn. polar., MC-PDFT, srDFT 
  Lee Huntington         : MR-EOM, pCC                                   
  Robert Izsak           : Overlap fitted RIJCOSX, COSX-SCS-MP3, EOM     
  Riya Kayal             : Wick's Theorem for AUTO-CI, AUTO-CI UHF-CCSDT 
  Emily Kempfer          : AUTO-CI RHF CISDT and CCSDT, approximate NEVPT4
  Christian Kollmar      : KDIIS, OOCD, Brueckner-CCSD(T), CCSD density, CASPT2, CASPT2-K, improved NEVPT2 
  Axel Koslowski         : Symmetry handling                             
  Simone Kossmann        : meta-GGA functionals, TD-DFT gradient, OOMP2, (MP2 Hessian; deprecated post 5.0) 
  Lucas Lang             : DCDCAS, Hyperfine gauge corrections, ICE-SOC+SSC
  Marvin Lechner         : AUTO-CI (C++ implementation), FIC-MRCC        
  Spencer Leger          : CASSCF response                               
  Dagmar Lenk            : GEPOL surface, SMD, ORCA-2-JSON               
  Dimitrios Liakos       : Extrapolation schemes; Compound Job, Property file
  Dimitrios Manganas     : Further ROCIS development; embedding schemes. LFT, Crystal Embedding 
  Dimitrios Pantazis     : SARC Basis sets                               
  Anastasios Papadopoulos: AUTO-CI, single reference methods and gradients 
  Taras Petrenko         : pre 6.0 DFT Hessian and TD-DFT gradient,  ECA, NRVS 
  Petra Pikulova         : Analytic Raman intensities                    
  Peter Pinski           : DLPNO-MP2, DLPNO-MP2 Gradient                 
  Shashank Vittal Rao    : ES-AILFT, MagRelax                            
  Christoph Reimann      : Effective Core Potentials                     
  Marius Retegan         : Local ZFS, SOC                                
  Christoph Riplinger    : Optimizer, TS searches, QM/MM, DLPNO-CCSD(T), (RO)-DLPNO pert. Triples 
  Michael Roemelt        : Original ROCIS implementation, recursive CI coupling coefficients
  Masaaki Saitow         : Open-shell DLPNO-CCSD energy and density      
  Barbara Sandhoefer     : DKH picture change effects                    
  Yorick L. A. Schmerwitz: GMF and freeze-and-release deltaSCF, NEB S-IDPP initial path                    
  Kantharuban Sivalingam : CASSCF convergence/infrastructure, NEVPT2, NEVPT3, NEVPT4(SD), FIC-MRCI and CEPA variants
  Bernardo de Souza      : ESD, SOC TD-DFT                               
  Georgi L. Stoychev     : AutoAux, RI-MP2 NMR, DLPNO-MP2 response, X2C  
  Van Anh Tran           : RI-MP2 g-tensors                              
  Willem Van den Heuvel  : Paramagnetic NMR                              
  Zikuan Wang            : NOTCH, Electric field optimization            
  Frank Wennmohs         : Technical directorship and infrastructure     
  Hang Xu                : AUTO-CI-Response properties                   
                                                                         
[FACCTs GmbH]                                                            
  Markus Bursch, Nicolas Foglia, Miquel Garcia-Rates, Ingolf Harden, Hagen Neugebauer, Anastasios Papadopoulos, 
  Christoph Riplinger, Bernardo de Souza, Georgi L. Stoychev                                                    
                                                                 
  APM, various basis sets, CI-OPT, improved COSX, DLPNO-Multilevel,           
  DOCKER, DRACO, updates on ESD, Fragmentator, GOAT, IRC, LR-CPCM, L-BFGS, MBIS, meta-GGA TD-DFT gradient, ML-optimized integration grids, 
  MM, NACMEs, nearIR, NEB, NEB-TS, NL-DFT gradient (VV10), 2- and 3-layer-ONIOM, interface openCOSMO-RS, QMMM,   
  Crystal-QMMM, RESP, rigid body optimization, SF, symmetry and pop. for TD-DFT, various functionals, SOLVATOR                                   
                                                                         
[Other institutions]                                                     
  V. Asgeirsson          : NEB                                           
  Christoph Bannwarth    : sTDA-DFT, sTD-DFT, PBEh-3c, B97-3c, D3        
  Giovanni Bistoni       : ETS/NOCV, ADLD/ADEX, COVALED                  
  Martin Brehm           : Molecular dynamics                            
  Ronald Cardenas        : ETS/NOCV                                      
  Martina Colucci        : COVALED                                       
  Sebastian Ehlert       : rSCAN, r2SCAN, r2SCAN-3c, D4, dhf basis sets  
  Marvin Friede          : D4 for Fr, Ra, Ac-Lr                          
  Lars Goerigk           : TD-DFT with DH, B97 family of functionals     
  Stefan Grimme          : VdW corrections, initial TS optimization, DFT functionals, gCP, sTDA/sTD-DF 
  Waldemar Hujo          : DFT-NL                                        
  H. Jonsson             : NEB                                           
  Holger Kruse           : gCP                                           
  Marcel Mueller         : wB97X-3c, vDZP basis set                      
  Hagen Neugebauer       : wr2SCAN, Native XTB                           
  Gianluca Regni         : ADLD/ADEX                                     
  Tobias Risthaus        : pre 6.0 range-separated hybrid DFT and stability analysis
  Lukas Wittmann         : regularized MP2, r2SCAN double-hybrids, wr2SCAN        
                                                                         
We gratefully acknowledge several colleagues who have allowed us to      
interface, adapt or use parts of their codes:                            
  Ed Valeev, F. Pavosevic, A. Kumar             : LibInt (2-el integral package), F12 methods 
  Garnet Chan, S. Sharma, J. Yang, R. Olivares  : DMRG                   
  Ulf Ekstrom                                   : XCFun DFT Library      
  Mihaly Kallay                                 : mrcc  (arbitrary order and MRCC methods)
  Frank Weinhold                                : gennbo (NPA and NBO analysis)           
  Simon Mueller                                 : openCOSMO-RS                            
  Christopher J. Cramer and Donald G. Truhlar   : smd solvation model                     
  S Lehtola, MJT Oliveira, MAL Marques          : LibXC Library                           
  Liviu Ungur et al                             : ANISO software                          


 Your calculation uses the libint2 library for the computation of 2-el integrals
 For citations please refer to: http://libint.valeyev.net

 Your ORCA version has been built with support for libXC version: 7.0.0
 For citations please refer to: https://libxc.gitlab.io

 This ORCA versions uses:
   CBLAS   interface :  Fast vector & matrix operations
   LAPACKE interface :  Fast linear algebra routines
   Shared memory     :  Shared parallel matrices


  ***********************************
  * Starting time: Mon Mar 30 18:05:50 2026
  * Host name:     DESKTOP-E59RH2R
  * Process ID:    87532
  * Working dir.:  C:\Users\gnome\Desktop\Vitya_Diplom\Vitya_DiplomB12\06_highlevel_sp\b12_hexagonal_prism\mult_1
  ***********************************

NOTE: MaxCore=1800 MB was set to SCF,MP2,MDCI,CIPSI,MRCI,RASCI and CIS
      => If you want to overwrite this, your respective input block should be placed after the MaxCore statement
Your calculation utilizes the atom-pairwise dispersion correction
based on EEQ partial charges (D4)


================================================================================

----- Orbital basis set information -----
Your calculation utilizes the basis: def2-TZVPP
   F. Weigend and R. Ahlrichs, Phys. Chem. Chem. Phys. 7, 3297 (2005).

----- AuxJ basis set information -----
Your calculation utilizes the auxiliary basis: def2/J
   H-Rn: F. Weigend, Phys. Chem. Chem. Phys. 8, 1057 (2006).
   Fr-Lr: K. Eichkorn, F. Weigend, O. Treutler, R. Ahlrichs; Theor. Chem. Acc. 97, 119 (1997).

================================================================================
                                        WARNINGS
                       Please study these warnings very carefully!
================================================================================


================================================================================
                                       INPUT FILE
================================================================================
NAME = b12_hexagonal_prism_m1_highlevel.inp
|  1> !pbe0
|  2> !d4
|  3> !def2-tzvpp
|  4> !def2/j
|  5> !rijcosx
|  6> !sp
|  7> !tightscf
|  8> 
|  9> %output
| 10>     jsonpropfile true
| 11>     jsongbwfile true
| 12> end
| 13> 
| 14> %maxcore 1800
| 15> %pal
| 16>   nprocs 10
| 17> end
| 18> 
| 19> * xyz 0 1
| 20> B             1.9301996024580399             0.5863756100549200             0.5914869941246500
| 21> B             0.5793009173024000             1.0891256384135299             1.0906522757569499
| 22> B            -0.9802515399658500             0.7802218754564600             0.7776110567997300
| 23> B            -1.9296762559171501            -0.5862157376614801             0.5925268712397200
| 24> B            -0.5785159118419100            -1.0889884976686901             1.0913572253643000
| 25> B             0.9807590209072700            -0.7801643868435000             0.7767253987831100
| 26> B             1.9258864733159200            -0.5983167664020400            -0.5926512068307001
| 27> B             0.9848940629915101             0.7739519743266600            -0.7770073049671500
| 28> B            -0.5727248782637900             1.0921657197385599            -1.0913361649405000
| 29> B            -1.9264768994946000             0.5984055665238700            -0.5914298300749600
| 30> B            -0.9853007682228200            -0.7741334981562100            -0.7763883161752800
| 31> B             0.5719061767309900            -1.0924274977820601            -1.0915469990798801
| 32> *
| 33> 
| 34>                          ****END OF INPUT****
================================================================================

                       ****************************
                       * Single Point Calculation *
                       ****************************

---------------------------------
CARTESIAN COORDINATES (ANGSTROEM)
---------------------------------
  B      1.930200    0.586376    0.591487
  B      0.579301    1.089126    1.090652
  B     -0.980252    0.780222    0.777611
  B     -1.929676   -0.586216    0.592527
  B     -0.578516   -1.088988    1.091357
  B      0.980759   -0.780164    0.776725
  B      1.925886   -0.598317   -0.592651
  B      0.984894    0.773952   -0.777007
  B     -0.572725    1.092166   -1.091336
  B     -1.926477    0.598406   -0.591430
  B     -0.985301   -0.774133   -0.776388
  B      0.571906   -1.092427   -1.091547

----------------------------
CARTESIAN COORDINATES (A.U.)
----------------------------
  NO LB      ZA    FRAG     MASS         X           Y           Z
   0 B     5.0000    0    10.810    3.647549    1.108089    1.117748
   1 B     5.0000    0    10.810    1.094720    2.058149    2.061034
   2 B     5.0000    0    10.810   -1.852407    1.474406    1.469472
   3 B     5.0000    0    10.810   -3.646560   -1.107787    1.119714
   4 B     5.0000    0    10.810   -1.093237   -2.057890    2.062366
   5 B     5.0000    0    10.810    1.853366   -1.474297    1.467798
   6 B     5.0000    0    10.810    3.639398   -1.130655   -1.119948
   7 B     5.0000    0    10.810    1.861180    1.462557   -1.468331
   8 B     5.0000    0    10.810   -1.082293    2.063894   -2.062326
   9 B     5.0000    0    10.810   -3.640514    1.130823   -1.117640
  10 B     5.0000    0    10.810   -1.861949   -1.462900   -1.467161
  11 B     5.0000    0    10.810    1.080746   -2.064389   -2.062725

--------------------------------
INTERNAL COORDINATES (ANGSTROEM)
--------------------------------
 B      0   0   0     0.000000000000     0.00000000     0.00000000
 B      1   0   0     1.525401857530     0.00000000     0.00000000
 B      2   1   0     1.620376563181   136.57785925     0.00000000
 B      3   2   1     1.674161042895   136.28379418    46.34703246
 B      4   3   2     1.525531528944    74.36911927     8.59695996
 B      5   4   3     1.620402367816   136.55076574   316.97861477
 B      6   5   4     1.673776193629   136.29685118   313.66006702
 B      1   2   3     1.673787352690    74.36258873    42.96425139
 B      8   1   2     1.620567612332   136.33775622   351.44271197
 B      9   8   1     1.525237675750   136.54813823   313.71752188
 B      4   3   2     1.673644806045    82.07196168   292.68413329
 B      7   6   5     1.525222957449    74.40372720   351.45947592

---------------------------
INTERNAL COORDINATES (A.U.)
---------------------------
 B      0   0   0     0.000000000000     0.00000000     0.00000000
 B      1   0   0     2.882591754907     0.00000000     0.00000000
 B      2   1   0     3.062067938237   136.57785925     0.00000000
 B      3   2   1     3.163705875151   136.28379418    46.34703246
 B      4   3   2     2.882836798367    74.36911927     8.59695996
 B      5   4   3     3.062116701930   136.55076574   316.97861477
 B      6   5   4     3.162978615436   136.29685118   313.66006702
 B      1   2   3     3.162999703006    74.36258873    42.96425139
 B      8   1   2     3.062428968810   136.33775622   351.44271197
 B      9   8   1     2.882281496306   136.54813823   313.71752188
 B      4   3   2     3.162730328886    82.07196168   292.68413329
 B      7   6   5     2.882253682748    74.40372720   351.45947592

---------------------
BASIS SET INFORMATION
---------------------
There are 1 groups of distinct atoms

 Group   1 Type B   : 11s6p2d1f contracted to 5s3p2d1f pattern {62111/411/11/1}

Atom   0B    basis set group =>   1
Atom   1B    basis set group =>   1
Atom   2B    basis set group =>   1
Atom   3B    basis set group =>   1
Atom   4B    basis set group =>   1
Atom   5B    basis set group =>   1
Atom   6B    basis set group =>   1
Atom   7B    basis set group =>   1
Atom   8B    basis set group =>   1
Atom   9B    basis set group =>   1
Atom  10B    basis set group =>   1
Atom  11B    basis set group =>   1
---------------------------------
AUXILIARY/J BASIS SET INFORMATION
---------------------------------
There are 1 groups of distinct atoms

 Group   1 Type B   : 12s5p4d2f1g contracted to 6s4p3d1f1g pattern {711111/2111/211/2/1}

Atom   0B    basis set group =>   1
Atom   1B    basis set group =>   1
Atom   2B    basis set group =>   1
Atom   3B    basis set group =>   1
Atom   4B    basis set group =>   1
Atom   5B    basis set group =>   1
Atom   6B    basis set group =>   1
Atom   7B    basis set group =>   1
Atom   8B    basis set group =>   1
Atom   9B    basis set group =>   1
Atom  10B    basis set group =>   1
Atom  11B    basis set group =>   1


           ************************************************************
           *        Program running with 10 parallel MPI-processes    *
           *              working on a common directory               *
           ************************************************************
------------------------------------------------------------------------------
                             ORCA STARTUP CALCULATIONS
                           -- RI-GTO INTEGRALS CHOSEN --
------------------------------------------------------------------------------
------------------------------------------------------------------------------
                   ___                                                        
                  /   \      - P O W E R E D   B Y -                         
                 /     \                                                     
                 |  |  |   _    _      __       _____    __    __             
                 |  |  |  | |  | |    /  \     |  _  \  |  |  /  |          
                  \  \/   | |  | |   /    \    | | | |  |  | /  /          
                 / \  \   | |__| |  /  /\  \   | |_| |  |  |/  /          
                |  |  |   |  __  | /  /__\  \  |    /   |      \           
                |  |  |   | |  | | |   __   |  |    \   |  |\   \          
                \     /   | |  | | |  |  |  |  | |\  \  |  | \   \       
                 \___/    |_|  |_| |__|  |__|  |_| \__\ |__|  \__/        
                                                                              
                      - O R C A' S   B I G   F R I E N D -                    
                                      &                                       
                       - I N T E G R A L  F E E D E R -                       
                                                                              
 v1 FN, 2020, v2 2021, v3 2022-2024                                           
------------------------------------------------------------------------------


----------------------
SHARK INTEGRAL PACKAGE
----------------------

Number of atoms                             ...     12
Number of basis functions                   ...    372
Number of shells                            ...    132
Maximum angular momentum                    ...      3
Integral batch strategy                     ... SHARK/LIBINT Hybrid
RI-J (if used) integral strategy            ... SPLIT-RIJ (Revised 2003 algorithm where possible)
Printlevel                                  ...      1
Contraction scheme used                     ... SEGMENTED contraction
Prescreening option                         ... SCHWARTZ
   Thresh                                   ... 2.500e-11
   Tcut                                     ... 2.500e-12
   Tpresel                                  ... 2.500e-12 
Coulomb Range Separation                    ... NOT USED
Exchange Range Separation                   ... NOT USED
Multipole approximations                    ... NOT USED
Finite Nucleus Model                        ... NOT USED
CABS basis                                  ... NOT available
Auxiliary Coulomb fitting basis             ... AVAILABLE
   # of basis functions in Aux-J            ...    588
   # of shells in Aux-J                     ...    180
   Maximum angular momentum in Aux-J        ...      4
Auxiliary J/K fitting basis                 ... NOT available
Auxiliary Correlation fitting basis         ... NOT available
Auxiliary 'external' fitting basis          ... NOT available

Checking pre-screening integrals            ... done (  0.0 sec) Dimension = 132
   => SHARK Basis and OBASIS are compatible. Storing Pre-screening
Shell pair information
Shell pair cut-off parameter TPreSel        ...   2.5e-12
Total number of shell pairs                 ...      8778
Shell pairs after pre-screening             ...      8594
Total number of primitive shell pairs       ...     29184
Primitive shell pairs kept                  ...     22484
          la=0 lb=0:   1662 shell pairs
          la=1 lb=0:   2152 shell pairs
          la=1 lb=1:    666 shell pairs
          la=2 lb=0:   1432 shell pairs
          la=2 lb=1:    864 shell pairs
          la=2 lb=2:    300 shell pairs
          la=3 lb=0:    720 shell pairs
          la=3 lb=1:    432 shell pairs
          la=3 lb=2:    288 shell pairs
          la=3 lb=3:     78 shell pairs

Checking whether 4 symmetric matrices of dimension 372 fit in memory
:Max Core in MB      =   1800.00
 MB in use           =     12.70
 MB left             =   1787.30
 MB needed           =      2.12
 Data fit in memory  = YES
Calculating RI/J V-Matrix + Cholesky decomp.... done (  0.0 sec)
Calculating Nuclear repulsion               ... done (  0.0 sec) ENN=    381.731248161400 Eh

Diagonalization of the overlap matrix:
Smallest eigenvalue                        ... 1.211e-06
Time for diagonalization                   ...    0.007 sec
Threshold for overlap eigenvalues          ... 1.000e-07
Number of eigenvalues below threshold      ... 0
Time for construction of square roots      ...    0.007 sec
Total time needed                          ...    0.017 sec

-------------------
DFT GRID GENERATION
-------------------

General Integration Accuracy     IntAcc      ... 4.388
Radial Grid Type                 RadialGrid  ... OptM3 with GC (2021)
Angular Grid (max. ang.)         AngularGrid ... 4 (Lebedev-302)
Angular grid pruning method      GridPruning ... 4 (adaptive)
Weight generation scheme         WeightScheme... mBecke (2022)
Basis function cutoff            BFCut       ... 1.0000e-11
Integration weight cutoff        WCut        ... 1.0000e-14
Partially contracted basis set               ... off
Rotationally invariant grid construction     ... off
Angular grids for H and He will be reduced by one unit

Total number of grid points                  ...    69970
Total number of batches                      ...     1100
Average number of points per batch           ...       63
Average number of grid points per atom       ...     5831

--------------------
COSX GRID GENERATION
--------------------

GRIDX 1
-------
General Integration Accuracy     IntAcc      ... 3.816
Radial Grid Type                 RadialGrid  ... OptM3 with GC (2021)
Angular Grid (max. ang.)         AngularGrid ... 1 (Lebedev-50)
Angular grid pruning method      GridPruning ... 4 (adaptive)
Weight generation scheme         WeightScheme... mBecke (2022)
Basis function cutoff            BFCut       ... 1.0000e-11
Integration weight cutoff        WCut        ... 1.0000e-14
Partially contracted basis set               ... on
Rotationally invariant grid construction     ... off
Angular grids for H and He will be reduced by one unit

Total number of grid points                  ...     8790
Total number of batches                      ...       72
Average number of points per batch           ...      122
Average number of grid points per atom       ...      732
UseSFitting                                  ... on

GRIDX 2
-------
General Integration Accuracy     IntAcc      ... 4.020
Radial Grid Type                 RadialGrid  ... OptM3 with GC (2021)
Angular Grid (max. ang.)         AngularGrid ... 2 (Lebedev-110)
Angular grid pruning method      GridPruning ... 4 (adaptive)
Weight generation scheme         WeightScheme... mBecke (2022)
Basis function cutoff            BFCut       ... 1.0000e-11
Integration weight cutoff        WCut        ... 1.0000e-14
Partially contracted basis set               ... on
Rotationally invariant grid construction     ... off
Angular grids for H and He will be reduced by one unit

Total number of grid points                  ...    20656
Total number of batches                      ...      168
Average number of points per batch           ...      122
Average number of grid points per atom       ...     1721
UseSFitting                                  ... on

GRIDX 3
-------
General Integration Accuracy     IntAcc      ... 4.338
Radial Grid Type                 RadialGrid  ... OptM3 with GC (2021)
Angular Grid (max. ang.)         AngularGrid ... 3 (Lebedev-194)
Angular grid pruning method      GridPruning ... 4 (adaptive)
Weight generation scheme         WeightScheme... mBecke (2022)
Basis function cutoff            BFCut       ... 1.0000e-11
Integration weight cutoff        WCut        ... 1.0000e-14
Partially contracted basis set               ... on
Rotationally invariant grid construction     ... off
Angular grids for H and He will be reduced by one unit

Total number of grid points                  ...    45893
Total number of batches                      ...      366
Average number of points per batch           ...      125
Average number of grid points per atom       ...     3824
UseSFitting                                  ... on
Grids setup in   0.9 sec
Initializing property integral containers    ... done (  0.0 sec)

SHARK setup successfully completed in   1.1 seconds

Maximum memory used throughout the entire STARTUP-calculation: 27.4 MB


           ************************************************************
           *        Program running with 10 parallel MPI-processes    *
           *              working on a common directory               *
           ************************************************************
-------------------------------------------------------------------------------
                                 ORCA GUESS
                   Start orbitals & Density for SCF / CASSCF
-------------------------------------------------------------------------------

------------
SCF SETTINGS
------------
Hamiltonian:
 Density Functional     Method          .... DFT(GTOs)
 Exchange Functional    Exchange        .... PBE
   PBE kappa parameter   XKappa         ....  0.804000
   PBE mue parameter    XMuePBE         ....  0.219520
 Correlation Functional Correlation     .... PBE
   PBE beta parameter  CBetaPBE         ....  0.066725
 LDA part of GGA corr.  LDAOpt          .... PW91-LDA
 Gradients option       PostSCFGGA      .... off
 Hybrid DFT is turned on
   Fraction HF Exchange ScalHFX         ....  0.250000
   Scaling of DF-GGA-X  ScalDFX         ....  0.750000
   Scaling of DF-GGA-C  ScalDFC         ....  1.000000
   Scaling of DF-LDA-C  ScalLDAC        ....  1.000000
   Perturbative correction              ....  0.000000
   NL short-range parameter             ....  6.900000
 RI-approximation to the Coulomb term is turned on
   Number of AuxJ basis functions       .... 588
   RIJ-COSX (HFX calculated with COS-X)).... on


General Settings:
 Integral files         IntName         .... b12_hexagonal_prism_m1_highlevel
 Hartree-Fock type      HFTyp           .... RHF
 Total Charge           Charge          ....    0
 Multiplicity           Mult            ....    1
 Number of Electrons    NEL             ....   60
 Basis Dimension        Dim             ....  372
 Nuclear Repulsion      ENuc            ....    381.7312481614 Eh

Convergence Acceleration:
 AO-DIIS                CNVDIIS         .... on
   Start iteration      DIISMaxIt       ....    12
   Startup error        DIISStart       ....  0.200000
   # of expansion vecs  DIISMaxEq       ....     5
   Bias factor          DIISBfac        ....   1.050
   Max. coefficient     DIISMaxC        ....  10.000
 MO-DIIS                CNVKDIIS        .... off
 Trust-Rad. Augm. Hess. CNVTRAH         .... auto
   Auto Start mean grad. ratio tolernc. ....  1.125000
   Auto Start start iteration           ....    50
   Auto Start num. interpolation iter.  ....    10
   Max. Number of Micro iterations      ....    24
   Max. Number of Macro iterations      .... Maxiter - #DIIS iter
   Number of Davidson start vectors     ....     2
   Converg. threshold    (grad. norm)   ....   1.000e-05
   Grad. Scal. Fac. for Micro threshold ....   0.100
   Minimum threshold for Micro iter.    ....   1.000e-02
   NR start threshold (gradient norm)   ....   1.000e-04
   Initial trust radius                 ....   0.400
   Minimum AH scaling param. (alpha)    ....   1.000
   Maximum AH scaling param. (alpha)    .... 1000.000
   Quad. conv. algorithm                .... NR
   White noise on init. David. guess    .... on
   Maximum white noise                  ....   0.010
   Pseudo random numbers                .... off
   Inactive MOs                         .... canonical
   Orbital update algorithm             .... Taylor
   Preconditioner                       .... Diag
   Full preconditioner red. dimension   ....   250
 SOSCF                 CNVSOSCF           .... on
   Start iteration     SOSCFMaxIt         ....   150
   Startup grad/error  SOSCFStart         ....  0.003300
   Hessian update      SOSCFHessUp        .... L-BFGS
   Autom. constraints  SOSCFAutoConstrain .... off
 Level Shifting         CNVShift        .... on
   Level shift para.    LevelShift      ....    0.2500
   Turn off err/grad.   ShiftErr        ....    0.0010
 Zerner damping         CNVZerner       .... off
 Static damping         CNVDamp         .... on
   Fraction old density DampFac         ....    0.7000
   Max. Damping (<1)    DampMax         ....    0.9800
   Min. Damping (>=0)   DampMin         ....    0.0000
   Turn off err/grad.   DampErr         ....    0.1000

SCF Procedure:
 Maximum # iterations   MaxIter         ....   125
 SCF integral mode      SCFMode         .... Direct
   Integral package                     .... SHARK and LIBINT hybrid scheme
 Reset frequency        DirectResetFreq ....    20
 Integral Threshold     Thresh          ....  2.500e-11 Eh
 Primitive CutOff       TCut            ....  2.500e-12 Eh

Convergence Tolerance:
 Convergence Check Mode ConvCheckMode   .... Total+1el-Energy
 Convergence forced     ConvForced      .... 0
 Energy Change          TolE            ....  1.000e-08 Eh
 1-El. energy change                    ....  1.000e-05 Eh
 Orbital Gradient       TolG            ....  1.000e-05
 Orbital Rotation angle TolX            ....  1.000e-05
 DIIS Error             TolErr          ....  5.000e-07

------------------------------
INITIAL GUESS: MODEL POTENTIAL
------------------------------
Loading Hartree-Fock densities                     ... done
Calculating cut-offs                               ... done
Initializing the effective Hamiltonian             ... done
Setting up the integral package (SHARK)            ... done
Starting the Coulomb interaction                   ... done (   0.1 sec)
Making the grid                                    ... done (   0.1 sec)
Mapping shells                                     ... done
Starting the XC term evaluation                    ... done (   0.1 sec)
  promolecular density results
     # of electrons  =     60.010783593
     EX              =    -45.853047489
     EC              =     -1.915077619
     EX+EC           =    -47.768125107
Transforming the Hamiltonian                       ... done (   0.0 sec)
Diagonalizing the Hamiltonian                      ... done (   0.0 sec)
Back transforming the eigenvectors                 ... done (   0.0 sec)
Now organizing SCF variables                       ... done
                      ------------------
                      INITIAL GUESS DONE (   0.3 sec)
                      ------------------
             **** ENERGY FILE WAS UPDATED (b12_hexagonal_prism_m1_highlevel.en.tmp) ****
Finished Guess after   0.4 sec
Maximum memory used throughout the entire GUESS-calculation: 20.1 MB


           ************************************************************
           *        Program running with 10 parallel MPI-processes    *
           *              working on a common directory               *
           ************************************************************

-------------------------------------------------------------------------------------------
                                      ORCA LEAN-SCF
                              memory conserving SCF solver
-------------------------------------------------------------------------------------------

----------------------------------------D-I-I-S--------------------------------------------
Iteration    Energy (Eh)           Delta-E    RMSDP     MaxDP     DIISErr   Damp  Time(sec)
-------------------------------------------------------------------------------------------
               ***  Starting incremental Fock matrix formation  ***
    1    -297.0429628378204825     0.00e+00  1.72e-02  1.56e-01  1.63e-01  0.700   1.8
Warning: op=0 Small HOMO/LUMO gap (   0.081) - skipping pre-diagonalization
         Will do a full diagonalization
    2    -297.3062892563460764    -2.63e-01  9.52e-03  8.15e-02  7.98e-02  0.700   1.4
                               ***Turning on AO-DIIS***
    3    -297.4027456130606879    -9.65e-02  3.87e-03  5.17e-02  2.61e-02  0.700   1.3
    4    -297.4581971117332841    -5.55e-02  7.32e-03  8.95e-02  1.39e-02  0.000   1.2
    5    -297.5845212468379941    -1.26e-01  2.22e-03  3.25e-02  7.51e-03  0.000   1.3
                              *** Initializing SOSCF ***
---------------------------------------S-O-S-C-F--------------------------------------
Iteration    Energy (Eh)           Delta-E    RMSDP     MaxDP     MaxGrad    Time(sec)
--------------------------------------------------------------------------------------
    6    -297.5864300341360149    -1.91e-03  1.90e-03  2.89e-02  2.73e-03     1.4
               *** Restarting incremental Fock matrix formation ***
    7    -297.5866636720076031    -2.34e-04  1.88e-03  2.86e-02  6.90e-04     2.1
    8    -297.5866733684212022    -9.70e-06  6.82e-04  9.81e-03  7.17e-04     2.0
    9    -297.5866927966020512    -1.94e-05  2.84e-04  4.26e-03  2.22e-04     1.8
   10    -297.5866918883996277     9.08e-07  7.53e-05  6.94e-04  3.17e-04     1.8
   11    -297.5866950214204962    -3.13e-06  4.01e-05  7.16e-04  4.10e-05     1.8
   12    -297.5866950364727472    -1.51e-08  2.60e-05  4.48e-04  3.21e-05     1.8
   13    -297.5866950940625202    -5.76e-08  4.41e-05  6.90e-04  1.88e-06     1.7
                  *** Gradient check signals convergence ***

               *****************************************************
               *                     SUCCESS                       *
               *           SCF CONVERGED AFTER  13 CYCLES          *
               *****************************************************

Recomputing exchange energy using gridx3       ... done (    2.925 sec)
Old exchange energy                            :    -11.675220347 Eh
New exchange energy                            :    -11.675206289 Eh
Exchange energy change after final integration :      0.000014059 Eh
Total energy after final integration           :   -297.586681041 Eh
             **** ENERGY FILE WAS UPDATED (b12_hexagonal_prism_m1_highlevel.en.tmp) ****

----------------
TOTAL SCF ENERGY
----------------

Total Energy       :       -297.58668104063605 Eh           -8097.74527 eV

Components:
Nuclear Repulsion  :        381.73124816139978 Eh           10387.43535 eV
Electronic Energy  :       -679.31794326098043 Eh          -18485.18100 eV
One Electron Energy:      -1152.27926200013235 Eh          -31355.11278 eV
Two Electron Energy:        472.96131873915192 Eh           12869.93178 eV

Virial components:
Potential Energy   :       -593.51417642875685 Eh          -16150.34181 eV
Kinetic Energy     :        295.92749538812086 Eh            8052.59654 eV
Virial Ratio       :          2.00560673029162

DFT components:
N(Alpha)           :       29.999939317442 electrons
N(Beta)            :       29.999939317442 electrons
N(Total)           :       59.999878634884 electrons
E(X)               :      -34.877495444594 Eh       
E(C)               :       -1.946323989226 Eh       
E(XC)              :      -36.823819433821 Eh       

---------------
SCF CONVERGENCE
---------------

  Last Energy change         ...    5.7590e-08  Tolerance :   1.0000e-08
  Last MAX-Density change    ...    6.9010e-04  Tolerance :   1.0000e-07
  Last RMS-Density change    ...    4.4076e-05  Tolerance :   5.0000e-09
  Last DIIS Error            ...    2.7284e-03  Tolerance :   5.0000e-07
  Last Orbital Gradient      ...    1.8809e-06  Tolerance :   1.0000e-05
  Last Orbital Rotation      ...    8.9222e-06  Tolerance :   1.0000e-05


----------------
ORBITAL ENERGIES
----------------

  NO   OCC          E(Eh)            E(eV) 
   0   2.0000      -6.833704      -185.9545 
   1   2.0000      -6.833673      -185.9537 
   2   2.0000      -6.833640      -185.9528 
   3   2.0000      -6.833637      -185.9527 
   4   2.0000      -6.817797      -185.5217 
   5   2.0000      -6.817792      -185.5215 
   6   2.0000      -6.817753      -185.5205 
   7   2.0000      -6.817745      -185.5203 
   8   2.0000      -6.816168      -185.4774 
   9   2.0000      -6.816152      -185.4769 
  10   2.0000      -6.815749      -185.4660 
  11   2.0000      -6.815742      -185.4658 
  12   2.0000      -0.840979       -22.8842 
  13   2.0000      -0.763683       -20.7809 
  14   2.0000      -0.617089       -16.7919 
  15   2.0000      -0.617020       -16.7900 
  16   2.0000      -0.571010       -15.5380 
  17   2.0000      -0.495255       -13.4766 
  18   2.0000      -0.495225       -13.4758 
  19   2.0000      -0.409180       -11.1344 
  20   2.0000      -0.389824       -10.6077 
  21   2.0000      -0.379245       -10.3198 
  22   2.0000      -0.378799       -10.3076 
  23   2.0000      -0.371301       -10.1036 
  24   2.0000      -0.371259       -10.1025 
  25   2.0000      -0.347735        -9.4623 
  26   2.0000      -0.314621        -8.5613 
  27   2.0000      -0.270826        -7.3696 
  28   2.0000      -0.240267        -6.5380 
  29   2.0000      -0.240232        -6.5370 
  30   0.0000      -0.143795        -3.9129 
  31   0.0000      -0.083113        -2.2616 
  32   0.0000      -0.083043        -2.2597 
  33   0.0000      -0.048975        -1.3327 
  34   0.0000      -0.033127        -0.9014 
  35   0.0000      -0.032997        -0.8979 
  36   0.0000      -0.032964        -0.8970 
  37   0.0000       0.001336         0.0364 
  38   0.0000       0.001364         0.0371 
  39   0.0000       0.008946         0.2434 
  40   0.0000       0.021816         0.5936 
*Only the first 10 virtual orbitals were printed.

                    ********************************
                    * MULLIKEN POPULATION ANALYSIS *
                    ********************************

-----------------------
MULLIKEN ATOMIC CHARGES
-----------------------
   0 B :   -0.006328
   1 B :   -0.276839
   2 B :    0.283279
   3 B :   -0.006447
   4 B :   -0.276911
   5 B :    0.283085
   6 B :   -0.006770
   7 B :    0.283216
   8 B :   -0.276337
   9 B :   -0.006896
  10 B :    0.283449
  11 B :   -0.276501
Sum of atomic charges:   -0.0000000

--------------------------------
MULLIKEN REDUCED ORBITAL CHARGES
--------------------------------
  0 B s       :     2.875092  s :     2.875092
      pz      :     0.722060  p :     2.029864
      px      :     0.585604
      py      :     0.722200
      dz2     :     0.028009  d :     0.092278
      dxz     :     0.014794
      dyz     :     0.013906
      dx2y2   :     0.020826
      dxy     :     0.014744
      f0      :     0.001895  f :     0.009094
      f+1     :     0.000765
      f-1     :     0.000818
      f+2     :     0.000457
      f-2     :     0.002519
      f+3     :     0.001120
      f-3     :     0.001521

  1 B s       :     3.366048  s :     3.366048
      pz      :     0.524839  p :     1.785026
      px      :     0.735544
      py      :     0.524643
      dz2     :     0.025391  d :     0.116937
      dxz     :     0.026441
      dyz     :     0.008222
      dx2y2   :     0.030414
      dxy     :     0.026469
      f0      :     0.000876  f :     0.008828
      f+1     :     0.002272
      f-1     :     0.001184
      f+2     :     0.001116
      f-2     :     0.000786
      f+3     :     0.001790
      f-3     :     0.000805

  2 B s       :     2.646516  s :     2.646516
      pz      :     0.648595  p :     1.863880
      px      :     0.567047
      py      :     0.648238
      dz2     :     0.035331  d :     0.190761
      dxz     :     0.038433
      dyz     :     0.042722
      dx2y2   :     0.035941
      dxy     :     0.038335
      f0      :     0.003432  f :     0.015563
      f+1     :     0.001290
      f-1     :     0.002556
      f+2     :     0.002148
      f-2     :     0.001866
      f+3     :     0.001256
      f-3     :     0.003016

  3 B s       :     2.875163  s :     2.875163
      pz      :     0.721966  p :     2.029947
      px      :     0.585790
      py      :     0.722191
      dz2     :     0.028004  d :     0.092242
      dxz     :     0.014794
      dyz     :     0.013906
      dx2y2   :     0.020803
      dxy     :     0.014735
      f0      :     0.001896  f :     0.009094
      f+1     :     0.000763
      f-1     :     0.000819
      f+2     :     0.000457
      f-2     :     0.002520
      f+3     :     0.001119
      f-3     :     0.001521

  4 B s       :     3.366126  s :     3.366126
      pz      :     0.524817  p :     1.785083
      px      :     0.735534
      py      :     0.524733
      dz2     :     0.025383  d :     0.116876
      dxz     :     0.026417
      dyz     :     0.008221
      dx2y2   :     0.030397
      dxy     :     0.026458
      f0      :     0.000875  f :     0.008826
      f+1     :     0.002272
      f-1     :     0.001183
      f+2     :     0.001114
      f-2     :     0.000786
      f+3     :     0.001790
      f-3     :     0.000805

  5 B s       :     2.646611  s :     2.646611
      pz      :     0.648836  p :     1.863898
      px      :     0.566822
      py      :     0.648240
      dz2     :     0.035351  d :     0.190839
      dxz     :     0.038468
      dyz     :     0.042749
      dx2y2   :     0.035945
      dxy     :     0.038325
      f0      :     0.003434  f :     0.015567
      f+1     :     0.001288
      f-1     :     0.002558
      f+2     :     0.002149
      f-2     :     0.001867
      f+3     :     0.001257
      f-3     :     0.003015

  6 B s       :     2.875421  s :     2.875421
      pz      :     0.721912  p :     2.029998
      px      :     0.586711
      py      :     0.721375
      dz2     :     0.028004  d :     0.092259
      dxz     :     0.014725
      dyz     :     0.013988
      dx2y2   :     0.020766
      dxy     :     0.014775
      f0      :     0.001896  f :     0.009092
      f+1     :     0.000755
      f-1     :     0.000826
      f+2     :     0.000460
      f-2     :     0.002517
      f+3     :     0.001089
      f-3     :     0.001551

  7 B s       :     2.646375  s :     2.646375
      pz      :     0.648802  p :     1.863934
      px      :     0.565652
      py      :     0.649480
      dz2     :     0.035344  d :     0.190903
      dxz     :     0.038350
      dyz     :     0.042880
      dx2y2   :     0.035866
      dxy     :     0.038464
      f0      :     0.003432  f :     0.015572
      f+1     :     0.001300
      f-1     :     0.002550
      f+2     :     0.002147
      f-2     :     0.001868
      f+3     :     0.001234
      f-3     :     0.003041

  8 B s       :     3.365772  s :     3.365772
      pz      :     0.524672  p :     1.784877
      px      :     0.735310
      py      :     0.524895
      dz2     :     0.025405  d :     0.116863
      dxz     :     0.026430
      dyz     :     0.008184
      dx2y2   :     0.030371
      dxy     :     0.026473
      f0      :     0.000874  f :     0.008825
      f+1     :     0.002280
      f-1     :     0.001178
      f+2     :     0.001108
      f-2     :     0.000792
      f+3     :     0.001781
      f-3     :     0.000813

  9 B s       :     2.875573  s :     2.875573
      pz      :     0.721924  p :     2.030009
      px      :     0.586842
      py      :     0.721243
      dz2     :     0.027995  d :     0.092222
      dxz     :     0.014718
      dyz     :     0.013972
      dx2y2   :     0.020760
      dxy     :     0.014778
      f0      :     0.001892  f :     0.009091
      f+1     :     0.000758
      f-1     :     0.000825
      f+2     :     0.000458
      f-2     :     0.002517
      f+3     :     0.001089
      f-3     :     0.001551

 10 B s       :     2.646200  s :     2.646200
      pz      :     0.648842  p :     1.863876
      px      :     0.565557
      py      :     0.649477
      dz2     :     0.035331  d :     0.190904
      dxz     :     0.038384
      dyz     :     0.042889
      dx2y2   :     0.035850
      dxy     :     0.038449
      f0      :     0.003432  f :     0.015571
      f+1     :     0.001298
      f-1     :     0.002551
      f+2     :     0.002148
      f-2     :     0.001867
      f+3     :     0.001236
      f-3     :     0.003038

 11 B s       :     3.365943  s :     3.365943
      pz      :     0.524771  p :     1.784852
      px      :     0.735253
      py      :     0.524828
      dz2     :     0.025387  d :     0.116879
      dxz     :     0.026443
      dyz     :     0.008184
      dx2y2   :     0.030380
      dxy     :     0.026484
      f0      :     0.000875  f :     0.008827
      f+1     :     0.002279
      f-1     :     0.001177
      f+2     :     0.001107
      f-2     :     0.000793
      f+3     :     0.001782
      f-3     :     0.000813



                     *******************************
                     * LOEWDIN POPULATION ANALYSIS *
                     *******************************

----------------------
LOEWDIN ATOMIC CHARGES
----------------------
   0 B :    0.018122
   1 B :    0.042003
   2 B :   -0.059794
   3 B :    0.017872
   4 B :    0.042141
   5 B :   -0.060033
   6 B :    0.017917
   7 B :   -0.060305
   8 B :    0.042184
   9 B :    0.017975
  10 B :   -0.060239
  11 B :    0.042158

-------------------------------
LOEWDIN REDUCED ORBITAL CHARGES
-------------------------------
  0 B s       :     2.508610  s :     2.508610
      pz      :     0.715151  p :     1.984862
      px      :     0.554322
      py      :     0.715388
      dz2     :     0.099223  d :     0.405314
      dxz     :     0.080150
      dyz     :     0.066374
      dx2y2   :     0.079436
      dxy     :     0.080131
      f0      :     0.014650  f :     0.083092
      f+1     :     0.008249
      f-1     :     0.007484
      f+2     :     0.007111
      f-2     :     0.021828
      f+3     :     0.009495
      f-3     :     0.014277

  1 B s       :     2.565370  s :     2.565370
      pz      :     0.511309  p :     1.890783
      px      :     0.868120
      py      :     0.511353
      dz2     :     0.084999  d :     0.426400
      dxz     :     0.103483
      dyz     :     0.036990
      dx2y2   :     0.097424
      dxy     :     0.103505
      f0      :     0.008057  f :     0.075444
      f+1     :     0.017577
      f-1     :     0.007125
      f+2     :     0.009119
      f-2     :     0.005689
      f+3     :     0.017820
      f-3     :     0.010057

  2 B s       :     2.479885  s :     2.479885
      pz      :     0.610632  p :     1.894895
      px      :     0.674257
      py      :     0.610006
      dz2     :     0.103720  d :     0.586931
      dxz     :     0.117904
      dyz     :     0.124059
      dx2y2   :     0.123616
      dxy     :     0.117632
      f0      :     0.020667  f :     0.098084
      f+1     :     0.009949
      f-1     :     0.014911
      f+2     :     0.012995
      f-2     :     0.010923
      f+3     :     0.009945
      f-3     :     0.018693

  3 B s       :     2.508566  s :     2.508566
      pz      :     0.715126  p :     1.985003
      px      :     0.554427
      py      :     0.715449
      dz2     :     0.099255  d :     0.405446
      dxz     :     0.080176
      dyz     :     0.066415
      dx2y2   :     0.079464
      dxy     :     0.080136
      f0      :     0.014661  f :     0.083113
      f+1     :     0.008243
      f-1     :     0.007493
      f+2     :     0.007110
      f-2     :     0.021833
      f+3     :     0.009496
      f-3     :     0.014277

  4 B s       :     2.565445  s :     2.565445
      pz      :     0.511199  p :     1.890707
      px      :     0.868068
      py      :     0.511440
      dz2     :     0.084972  d :     0.426286
      dxz     :     0.103447
      dyz     :     0.036968
      dx2y2   :     0.097400
      dxy     :     0.103499
      f0      :     0.008056  f :     0.075421
      f+1     :     0.017572
      f-1     :     0.007119
      f+2     :     0.009116
      f-2     :     0.005690
      f+3     :     0.017813
      f-3     :     0.010055

  5 B s       :     2.479824  s :     2.479824
      pz      :     0.610988  p :     1.894966
      px      :     0.674065
      py      :     0.609914
      dz2     :     0.103759  d :     0.587128
      dxz     :     0.117983
      dyz     :     0.124180
      dx2y2   :     0.123602
      dxy     :     0.117605
      f0      :     0.020686  f :     0.098115
      f+1     :     0.009942
      f-1     :     0.014925
      f+2     :     0.013003
      f-2     :     0.010933
      f+3     :     0.009946
      f-3     :     0.018680

  6 B s       :     2.508544  s :     2.508544
      pz      :     0.715085  p :     1.984996
      px      :     0.555374
      py      :     0.714538
      dz2     :     0.099251  d :     0.405432
      dxz     :     0.080089
      dyz     :     0.066532
      dx2y2   :     0.079458
      dxy     :     0.080102
      f0      :     0.014664  f :     0.083111
      f+1     :     0.008191
      f-1     :     0.007537
      f+2     :     0.007193
      f-2     :     0.021751
      f+3     :     0.009434
      f-3     :     0.014339

  7 B s       :     2.479718  s :     2.479718
      pz      :     0.610928  p :     1.895075
      px      :     0.672287
      py      :     0.611859
      dz2     :     0.103796  d :     0.587361
      dxz     :     0.117562
      dyz     :     0.124668
      dx2y2   :     0.123430
      dxy     :     0.117905
      f0      :     0.020685  f :     0.098152
      f+1     :     0.009984
      f-1     :     0.014898
      f+2     :     0.012977
      f-2     :     0.010961
      f+3     :     0.009828
      f-3     :     0.018819

  8 B s       :     2.565474  s :     2.565474
      pz      :     0.511052  p :     1.890645
      px      :     0.868434
      py      :     0.511159
      dz2     :     0.084967  d :     0.426272
      dxz     :     0.103552
      dyz     :     0.036829
      dx2y2   :     0.097313
      dxy     :     0.103611
      f0      :     0.008049  f :     0.075425
      f+1     :     0.017612
      f-1     :     0.007079
      f+2     :     0.009117
      f-2     :     0.005702
      f+3     :     0.017778
      f-3     :     0.010087

  9 B s       :     2.508642  s :     2.508642
      pz      :     0.715159  p :     1.984975
      px      :     0.555348
      py      :     0.714467
      dz2     :     0.099234  d :     0.405331
      dxz     :     0.080086
      dyz     :     0.066494
      dx2y2   :     0.079432
      dxy     :     0.080085
      f0      :     0.014644  f :     0.083077
      f+1     :     0.008195
      f-1     :     0.007533
      f+2     :     0.007195
      f-2     :     0.021748
      f+3     :     0.009431
      f-3     :     0.014330

 10 B s       :     2.479748  s :     2.479748
      pz      :     0.611133  p :     1.895060
      px      :     0.672089
      py      :     0.611838
      dz2     :     0.103785  d :     0.587292
      dxz     :     0.117581
      dyz     :     0.124670
      dx2y2   :     0.123396
      dxy     :     0.117861
      f0      :     0.020687  f :     0.098140
      f+1     :     0.009973
      f-1     :     0.014902
      f+2     :     0.012983
      f-2     :     0.010960
      f+3     :     0.009830
      f-3     :     0.018804

 11 B s       :     2.565433  s :     2.565433
      pz      :     0.511088  p :     1.890652
      px      :     0.868463
      py      :     0.511100
      dz2     :     0.084957  d :     0.426311
      dxz     :     0.103593
      dyz     :     0.036809
      dx2y2   :     0.097317
      dxy     :     0.103635
      f0      :     0.008055  f :     0.075446
      f+1     :     0.017613
      f-1     :     0.007079
      f+2     :     0.009114
      f-2     :     0.005706
      f+3     :     0.017787
      f-3     :     0.010093



                      *****************************
                      * MAYER POPULATION ANALYSIS *
                      *****************************

  NA   - Mulliken gross atomic population
  ZA   - Total nuclear charge
  QA   - Mulliken gross atomic charge
  VA   - Mayer's total valence
  BVA  - Mayer's bonded valence
  FA   - Mayer's free valence

  ATOM       NA         ZA         QA         VA         BVA        FA
  0 B      5.0063     5.0000    -0.0063     3.9362     3.9362    -0.0000
  1 B      5.2768     5.0000    -0.2768     3.6147     3.6147    -0.0000
  2 B      4.7167     5.0000     0.2833     3.2935     3.2935    -0.0000
  3 B      5.0064     5.0000    -0.0064     3.9369     3.9369    -0.0000
  4 B      5.2769     5.0000    -0.2769     3.6145     3.6145    -0.0000
  5 B      4.7169     5.0000     0.2831     3.2938     3.2938     0.0000
  6 B      5.0068     5.0000    -0.0068     3.9367     3.9367    -0.0000
  7 B      4.7168     5.0000     0.2832     3.2930     3.2930     0.0000
  8 B      5.2763     5.0000    -0.2763     3.6144     3.6144    -0.0000
  9 B      5.0069     5.0000    -0.0069     3.9374     3.9374    -0.0000
 10 B      4.7166     5.0000     0.2834     3.2925     3.2925     0.0000
 11 B      5.2765     5.0000    -0.2765     3.6143     3.6143    -0.0000

  Mayer bond orders larger than 0.100000
B(  0-B ,  1-B ) :   1.2596 B(  0-B ,  4-B ) :   0.1488 B(  0-B ,  5-B ) :   0.7592 
B(  0-B ,  6-B ) :   0.6738 B(  0-B ,  7-B ) :   0.7596 B(  0-B ,  8-B ) :   0.1486 
B(  0-B , 11-B ) :   0.1467 B(  1-B ,  2-B ) :   0.6983 B(  1-B ,  3-B ) :   0.1492 
B(  1-B ,  4-B ) :   0.2759 B(  1-B ,  5-B ) :   0.2690 B(  1-B ,  6-B ) :   0.1467 
B(  1-B ,  7-B ) :   0.2693 B(  1-B ,  8-B ) :   0.2757 B(  1-B ,  9-B ) :   0.1490 
B(  1-B , 10-B ) :  -0.1109 B(  1-B , 11-B ) :   0.2329 B(  2-B ,  3-B ) :   0.7593 
B(  2-B ,  4-B ) :   0.2689 B(  2-B ,  5-B ) :   0.2462 B(  2-B ,  7-B ) :   0.2464 
B(  2-B ,  8-B ) :   0.2688 B(  2-B ,  9-B ) :   0.7595 B(  2-B , 10-B ) :   0.2457 
B(  2-B , 11-B ) :  -0.1105 B(  3-B ,  4-B ) :   1.2598 B(  3-B ,  8-B ) :   0.1467 
B(  3-B ,  9-B ) :   0.6738 B(  3-B , 10-B ) :   0.7596 B(  3-B , 11-B ) :   0.1489 
B(  4-B ,  5-B ) :   0.6984 B(  4-B ,  6-B ) :   0.1488 B(  4-B ,  7-B ) :  -0.1107 
B(  4-B ,  8-B ) :   0.2329 B(  4-B ,  9-B ) :   0.1471 B(  4-B , 10-B ) :   0.2688 
B(  4-B , 11-B ) :   0.2758 B(  5-B ,  6-B ) :   0.7595 B(  5-B ,  7-B ) :   0.2458 
B(  5-B ,  8-B ) :  -0.1105 B(  5-B , 10-B ) :   0.2466 B(  5-B , 11-B ) :   0.2688 
B(  6-B ,  7-B ) :   0.7588 B(  6-B ,  8-B ) :   0.1488 B(  6-B , 11-B ) :   1.2604 
B(  7-B ,  8-B ) :   0.6979 B(  7-B , 10-B ) :   0.2465 B(  7-B , 11-B ) :   0.2686 
B(  8-B ,  9-B ) :   1.2606 B(  8-B , 10-B ) :   0.2689 B(  8-B , 11-B ) :   0.2759 
B(  9-B , 10-B ) :   0.7586 B(  9-B , 11-B ) :   0.1488 B( 10-B , 11-B ) :   0.6980 


-------
TIMINGS
-------

Total SCF time: 0 days 0 hours 0 min 26 sec 

Total time                  ....      26.118 sec
Sum of individual times     ....      24.578 sec  ( 94.1%)

SCF preparation             ....       0.155 sec  (  0.6%)
Fock matrix formation       ....      22.858 sec  ( 87.5%)
  Startup                   ....       0.051 sec  (  0.2% of F)
  Split-RI-J                ....       1.866 sec  (  8.2% of F)
  Chain of spheres X        ....      17.315 sec  ( 75.8% of F)
  XC integration            ....       4.667 sec  ( 20.4% of F)
    Basis function eval.    ....       0.733 sec  ( 15.7% of XC)
    Density eval.           ....       1.063 sec  ( 22.8% of XC)
    XC-Functional eval.     ....       0.036 sec  (  0.8% of XC)
    XC-Potential eval.      ....       2.184 sec  ( 46.8% of XC)
Diagonalization             ....       0.000 sec  (  0.0%)
Density matrix formation    ....       0.286 sec  (  1.1%)
Total Energy calculation    ....       0.138 sec  (  0.5%)
Population analysis         ....       0.079 sec  (  0.3%)
Orbital Transformation      ....       0.097 sec  (  0.4%)
Orbital Orthonormalization  ....       0.000 sec  (  0.0%)
DIIS solution               ....       0.510 sec  (  2.0%)
SOSCF solution              ....       0.455 sec  (  1.7%)
Finished LeanSCF after  26.2 sec

Maximum memory used throughout the entire LEANSCF-calculation: 34.0 MB


-------------------------------------------------------------------------------
                          DFT DISPERSION CORRECTION                            
                                                                               
                                DFTD4 V3.4.0                                   
-------------------------------------------------------------------------------
The PBE0 functional is recognized
Active option DFTDOPT                   ...         5   

-------------------------   ----------------
Dispersion correction           -0.020263456
-------------------------   ----------------


-------------------------   --------------------
FINAL SINGLE POINT ENERGY      -297.606944496257
-------------------------   --------------------



           ************************************************************
           *        Program running with 10 parallel MPI-processes    *
           *              working on a common directory               *
           ************************************************************

------------------------------------------------------------------------------
                              ORCA PROPERTY CALCULATIONS
------------------------------------------------------------------------------

GBWName                                 ... b12_hexagonal_prism_m1_highlevel.gbw
Number of atoms                         ...     12
Number of basis functions               ...    372
Max core memory                         ...   1800 MB

Electric properties:
Dipole moment                           ... YES
Quadrupole moment                       ...  NO
Static polarizability (Dipole/Dipole)   ...  NO
Static polarizability (Dipole/Quad.)    ...  NO
Static polarizability (Quad./Quad.)     ...  NO
Static polarizability (Velocity)        ...  NO
Static hyperpolarizability              ...  NO

Atomic electric properties:
Dipole moment                           ...  NO
Quadrupole moment                       ...  NO
Static polarizability                   ...  NO

Choice of electric origin               ... Center of mass
Position of electric origin             ...     0.000000     0.000000    -0.000000

General magnetic properties:
Magnetizability                         ...  NO

EPR properties:
g-Tensor (aka g-matrix)                 ...  NO
Zero-Field splitting spin-orbit         ...  NO
Zero-field splitting spin-spin          ...  NO
Hyperfine couplings                     ...  NO (   0 nuclei)
Quadrupole couplings                    ...  NO (   0 nuclei)
Contact density                         ...  NO (   0 nuclei)

NMR properties:
Chemical shifts                         ...  NO (   0 nuclei)
Spin-rotation constants                 ...  NO (   0 nuclei)
Spin-spin couplings                     ...  NO (   0 nuclei,    0 pairs)

Choice of magnetic origin               ... GIAO
Position of magnetic origin             ...     0.000000     0.000000     0.000000

Properties with geometric perturbations:
SCF Hessian                             ...  NO
IR spectrum                             ...  NO
VCD spectrum                            ...  NO
X-ray spectroscopy properties:
SCF XES/XAS/RIXS spectra                ...  NO

SCF SOC stabilization energy            ...  NO
Diagonal Born-Oppenheimer correction    ...  NO

-------------
DIPOLE MOMENT
-------------

Method             : SCF
Type of density    : Electron Density
Multiplicity       :   1
Irrep              :   0
Energy             :  -297.5866810406360514 Eh
Basis              : AO
                                X                 Y                 Z
Electronic contribution:      0.000141597       0.000194086      -0.000003254
Nuclear contribution   :      0.000000000       0.000000000      -0.000000000
                        -----------------------------------------
Total Dipole Moment    :      0.000141597       0.000194086      -0.000003254
                        -----------------------------------------
Magnitude (a.u.)       :      0.000240270
Magnitude (Debye)      :      0.000610719



--------------------
Rotational spectrum 
--------------------
 
Rotational constants in cm-1:             0.090893             0.054457             0.054453 
Rotational constants in MHz :          2724.899914          1632.591036          1632.460962 

Dipole components along the rotational axes: 
x,y,z [a.u.] :    -0.000141     0.000036     0.000191 
x,y,z [Debye]:    -0.000358     0.000091     0.000486 

 

Dipole moment calculation done in   0.0 sec 

Maximum memory used throughout the entire PROP-calculation: 19.0 MB
Converting b12_hexagonal_prism_m1_highlevel.gbw to JSON (see b12_hexagonal_prism_m1_highlevel.2jsonout) ... done

--------------------------------
SUGGESTED CITATIONS FOR THIS RUN
--------------------------------

Below you find a list of papers that are relevant to this ORCA run
We neither can nor want to force you to cite these papers, but we appreciate if you do
You receive ORCA, which is the product of decades of hard work by many enthusiastic individuals, for free
The only thing we kindly ask in return is that you cite our papers,
We deeply appreciate it, if you show your appreciation for ORCA by not just citing the generic ORCA reference.

Please note that relegating all ORCA citations to the supporting information does *not* help us.
SI sections are not indexed - citations you put there will not count into any citation statistics
But we need these citations in order to attract the funding resources that allow us to do what we are doing

Therefore, if you are a happy ORCA user, please consider citing a few of the papers listed below in the main body of your paper

In addition to the list printed below, the program has created the file b12_hexagonal_prism_m1_highlevel.bibtex that contains the list in bibtex format
You can import this file easily into all common literature databanks and citation aid programs

It goes without saying that in many instances, there are alternative algorithms to achieve similar
results as the ones you have gotten from ORCA. It is, of course, also the case that in some instances
ORCA just re-implements algorithms worked out by others. We are fully aware of that and we are also
fully appreciative of our colleagues work. Hence this citation list should not be read as indicating
that the listed papers, which are focused on our own work, are the only ones worth citing. It simply
meant to make it easier for users to cite ORCA specific papers. It is not a substitute for doing your
own literature research and citing the relevant literature in a scientifically appropriate manner.

List of essential papers. We consider these as the minimum necessary citations

  1. Neese, F.
     Software update: the ORCA program system, version 6.0
     WIRES Comput. Molec. Sci. 2025 15(1), e70019
     doi.org/10.1002/wcms.70019

List of papers to cite with high priority. The work reported in these papers was absolutely
necessary for this run to complete.
Our perspective: the developers of density functionals and basis sets usually get cited in chemistry papers
Good! But without the algorithms to do something with them, the functionals or basis sets would not do anything.
Hence, in our opinion, the algorithm design and method developments papers are equally worthy of getting cited

  1. Neese, F.
     An improvement of the resolution of the identity approximation for the formation of the Coulomb matrix
     J. Comp. Chem. 2003 24(14), 1740-1747
     doi.org/10.1002/jcc.10318
  2. Neese, F.; Wennmohs, F.; Hansen, A.; Becker, U.
     Efficient, approximate and parallel Hartree-Fock and hybrid DFT calculations. A 'chain-of-spheres' algorithm for the Hartree-Fock exchange
     Chem. Phys. 2009 356(1-3), 98-109
     doi.org/10.1016/j.chemphys.2008.10.036
  3. Caldeweyher, E.; Bannwarth, C.; Grimme, S.
     Extension of the D3 dispersion coefficient model
     J. Chem. Phys. 2017 147 , 034112
     doi.org/10.1063/1.4993215
  4. Caldeweyher, E.; Ehlert, S.; Hansen, A.; Neugebauer, H.; Spicher, S.; Bannwarth, C.; Grimme, S.
     A generally applicable atomic-charge dependent London dispersion correction
     J. Chem. Phys. 2019 150 , 154122
     doi.org/10.1063/1.5090222
  5. Helmich-Paris, B.; de Souza, B.; Neese, F.; Izsák, R.
     An improved chain of spheres for exchange algorithm
     J. Chem. Phys. 2021 155(10), 104109
     doi.org/10.1063/5.0058766
  6. Neese, F.
     The SHARK Integral Generation and Digestion System
     J. Comp. Chem. 2022 44(3), 381
     doi.org/10.1002/jcc.26942

List of suggested additional citations. These are papers that are important in the 'surrounding' of 
of this run, or papers that preceded the highly important papers. If you like your results we are grateful for a citation.

  1. Izsak, R.; Neese, F.
     An overlap fitted chain of spheres exchange method
     J. Chem. Phys. 2011 135 , 144105
     doi.org/10.1063/1.3646921
  2. Izsak, R.; Hansen, A.; Neese, F.
     The resolution of identity and chain of spheres approximations for the LPNO-CCSD singles Fock term
     Molec. Phys. 2012 110 , 2413-2417
     doi.org/10.1080/00268976.2012.687466
  3. Neese, F.
     The ORCA program system
     WIRES Comput. Molec. Sci. 2012 2(1), 73-78
     doi.org/10.1002/wcms.81
  4. Izsak, R.; Neese, F.; Klopper, W.
     Robust fitting techniques in the chain of spheres approximation to the Fock exchange: The role of the complementary space
     J. Chem. Phys. 2013 139 , 
     doi.org/10.1063/1.4819264
  5. Neese, F.
     Software update: the ORCA program system, version 4.0
     WIRES Comput. Molec. Sci. 2018 8(1), 1-6
     doi.org/10.1002/wcms.1327
  6. Neese, F.; Wennmohs, F.; Becker, U.; Riplinger, C.
     The ORCA quantum chemistry program package
     J. Chem. Phys. 2020 152(22), 224108
     doi.org/10.1063/5.0004608
  7. Neese, F.
     Software update: The ORCA program system—Version 5.0
     WIRES Comput. Molec. Sci. 2022 12(1), e1606
     doi.org/10.1002/wcms.1606

List of optional additional citations

  1. Neese, F.
     Approximate second-order SCF convergence for spin unrestricted wavefunctions
     Chem. Phys. Lett. 2000 325(1-3), 93-98
     doi.org/10.1016/s0009-2614(00)00662-x

Timings for individual modules:

Sum of individual times          ...       28.318 sec (=   0.472 min)
Startup calculation              ...        1.259 sec (=   0.021 min)   4.4 %
SCF iterations                   ...       26.847 sec (=   0.447 min)  94.8 %
Property calculations            ...        0.212 sec (=   0.004 min)   0.7 %
                             ****ORCA TERMINATED NORMALLY****
TOTAL RUN TIME: 0 days 0 hours 0 minutes 28 seconds 860 msec
