
                                 *****************
                                 * O   R   C   A *
                                 *****************

                                            #,                                       
                                            ###                                      
                                            ####                                     
                                            #####                                    
                                            ######                                   
                                           ########,                                 
                                     ,,################,,,,,                         
                               ,,#################################,,                 
                          ,,##########################################,,             
                       ,#########################################, ''#####,          
                    ,#############################################,,   '####,        
                  ,##################################################,,,,####,       
                ,###########''''           ''''###############################       
              ,#####''   ,,,,##########,,,,          '''####'''          '####       
            ,##' ,,,,###########################,,,                        '##       
           ' ,,###''''                  '''############,,,                           
         ,,##''                                '''############,,,,        ,,,,,,###''
      ,#''                                            '''#######################'''  
     '                                                          ''''####''''         
             ,#######,   #######,   ,#######,      ##                                
            ,#'     '#,  ##    ##  ,#'     '#,    #''#        ,####,    ,#,          
            ##       ##  ##   ,#'  ##            #'  '#       #'       ,# #          
            ##       ##  #######   ##           ,######,      #####,      #          
            '#,     ,#'  ##    ##  '#,     ,#' ,#      #,     #,   #      #          
             '#######'   ##     ##  '#######'  #'      '#     '####' #    #          



                #########################################################
                #                        -***-                          #
                #          Department of theory and spectroscopy        #
                #                                                       #
                #                      Frank Neese                      #
                #                                                       #
                #     Directorship, Architecture, Infrastructure        #
                #                    SHARK, DRIVERS                     #
                #        Core code/Algorithms in most modules           #
                #                                                       #
                #        Max Planck Institute fuer Kohlenforschung      #
                #                Kaiser Wilhelm Platz 1                 #
                #                 D-45470 Muelheim/Ruhr                 #
                #                      Germany                          #
                #                                                       #
                #                  All rights reserved                  #
                #                        -***-                          #
                #########################################################


                         Program Version 6.1.1  -  RELEASE   -


 With contributions from (in alphabetic order):
[Max-Planck-Institut fuer Kohlenforschung]                               
  Daniel Aravena         : Magnetic Suceptibility                        
  Michael Atanasov       : Ab Initio Ligand Field Theory (pilot matlab implementation)
  Alexander A. Auer      : GIAO ZORA, VPT2 properties, NMR spectrum      
  Ute Becker             : All parallelization in ORCA, NUMFREQ, NUMCALC 
  Giovanni Bistoni       : ED, misc. LED, open-shell LED, HFLD           
  Dmytro Bykov           : pre 5.0 version of the SCF Hessian            
  Marcos Casanova-Páez   : Triplet and SCS-CIS(D). UHF-(DLPNO)-IP/EA/STEOM-CCSD. UHF-CVS-IP/STEOM-CCSD   
  Vijay G. Chilkuri      : MRCI spin determinant printing, contributions to CSF-ICE 
  Pauline Colinet        : FMM embedding                                 
  Dipayan Datta          : RHF DLPNO-CCSD density                        
  Achintya Kumar Dutta   : EOM-CC, STEOM-CC                              
  Nicolas Foglia         : Exact transition moments, OPA infrastructure, MCD improvements    
  Dmitry Ganyushin       : Spin-Orbit,Spin-Spin,Magnetic field MRCI      
  Miquel Garcia-Rates    : C-PCM and meta-GGA Hessian, CCSD/C-PCM, Gaussian charge scheme 
  Tiago L. C. Gouveia    : GS-ROHF, GS-ROCIS                             
  Yang Guo               : DLPNO-NEVPT2, F12-NEVPT2, CIM, IAO-localization        
  Andreas Hansen         : Spin unrestricted coupled pair/coupled cluster methods 
  Ingolf Harden          : AUTO-CI MPn and infrastructure                
  Benjamin Helmich-Paris : MC-RPA, TRAH-(SCF,CASSCF), AVAS, COSX integrals, SCF dyn. polar., MC-PDFT, srDFT 
  Lee Huntington         : MR-EOM, pCC                                   
  Robert Izsak           : Overlap fitted RIJCOSX, COSX-SCS-MP3, EOM     
  Riya Kayal             : Wick's Theorem for AUTO-CI, AUTO-CI UHF-CCSDT 
  Emily Kempfer          : AUTO-CI RHF CISDT and CCSDT, approximate NEVPT4
  Christian Kollmar      : KDIIS, OOCD, Brueckner-CCSD(T), CCSD density, CASPT2, CASPT2-K, improved NEVPT2 
  Axel Koslowski         : Symmetry handling                             
  Simone Kossmann        : meta-GGA functionals, TD-DFT gradient, OOMP2, (MP2 Hessian; deprecated post 5.0) 
  Lucas Lang             : DCDCAS, Hyperfine gauge corrections, ICE-SOC+SSC
  Marvin Lechner         : AUTO-CI (C++ implementation), FIC-MRCC        
  Spencer Leger          : CASSCF response                               
  Dagmar Lenk            : GEPOL surface, SMD, ORCA-2-JSON               
  Dimitrios Liakos       : Extrapolation schemes; Compound Job, Property file
  Dimitrios Manganas     : Further ROCIS development; embedding schemes. LFT, Crystal Embedding 
  Dimitrios Pantazis     : SARC Basis sets                               
  Anastasios Papadopoulos: AUTO-CI, single reference methods and gradients 
  Taras Petrenko         : pre 6.0 DFT Hessian and TD-DFT gradient,  ECA, NRVS 
  Petra Pikulova         : Analytic Raman intensities                    
  Peter Pinski           : DLPNO-MP2, DLPNO-MP2 Gradient                 
  Shashank Vittal Rao    : ES-AILFT, MagRelax                            
  Christoph Reimann      : Effective Core Potentials                     
  Marius Retegan         : Local ZFS, SOC                                
  Christoph Riplinger    : Optimizer, TS searches, QM/MM, DLPNO-CCSD(T), (RO)-DLPNO pert. Triples 
  Michael Roemelt        : Original ROCIS implementation, recursive CI coupling coefficients
  Masaaki Saitow         : Open-shell DLPNO-CCSD energy and density      
  Barbara Sandhoefer     : DKH picture change effects                    
  Yorick L. A. Schmerwitz: GMF and freeze-and-release deltaSCF, NEB S-IDPP initial path                    
  Kantharuban Sivalingam : CASSCF convergence/infrastructure, NEVPT2, NEVPT3, NEVPT4(SD), FIC-MRCI and CEPA variants
  Bernardo de Souza      : ESD, SOC TD-DFT                               
  Georgi L. Stoychev     : AutoAux, RI-MP2 NMR, DLPNO-MP2 response, X2C  
  Van Anh Tran           : RI-MP2 g-tensors                              
  Willem Van den Heuvel  : Paramagnetic NMR                              
  Zikuan Wang            : NOTCH, Electric field optimization            
  Frank Wennmohs         : Technical directorship and infrastructure     
  Hang Xu                : AUTO-CI-Response properties                   
                                                                         
[FACCTs GmbH]                                                            
  Markus Bursch, Nicolas Foglia, Miquel Garcia-Rates, Ingolf Harden, Hagen Neugebauer, Anastasios Papadopoulos, 
  Christoph Riplinger, Bernardo de Souza, Georgi L. Stoychev                                                    
                                                                 
  APM, various basis sets, CI-OPT, improved COSX, DLPNO-Multilevel,           
  DOCKER, DRACO, updates on ESD, Fragmentator, GOAT, IRC, LR-CPCM, L-BFGS, MBIS, meta-GGA TD-DFT gradient, ML-optimized integration grids, 
  MM, NACMEs, nearIR, NEB, NEB-TS, NL-DFT gradient (VV10), 2- and 3-layer-ONIOM, interface openCOSMO-RS, QMMM,   
  Crystal-QMMM, RESP, rigid body optimization, SF, symmetry and pop. for TD-DFT, various functionals, SOLVATOR                                   
                                                                         
[Other institutions]                                                     
  V. Asgeirsson          : NEB                                           
  Christoph Bannwarth    : sTDA-DFT, sTD-DFT, PBEh-3c, B97-3c, D3        
  Giovanni Bistoni       : ETS/NOCV, ADLD/ADEX, COVALED                  
  Martin Brehm           : Molecular dynamics                            
  Ronald Cardenas        : ETS/NOCV                                      
  Martina Colucci        : COVALED                                       
  Sebastian Ehlert       : rSCAN, r2SCAN, r2SCAN-3c, D4, dhf basis sets  
  Marvin Friede          : D4 for Fr, Ra, Ac-Lr                          
  Lars Goerigk           : TD-DFT with DH, B97 family of functionals     
  Stefan Grimme          : VdW corrections, initial TS optimization, DFT functionals, gCP, sTDA/sTD-DF 
  Waldemar Hujo          : DFT-NL                                        
  H. Jonsson             : NEB                                           
  Holger Kruse           : gCP                                           
  Marcel Mueller         : wB97X-3c, vDZP basis set                      
  Hagen Neugebauer       : wr2SCAN, Native XTB                           
  Gianluca Regni         : ADLD/ADEX                                     
  Tobias Risthaus        : pre 6.0 range-separated hybrid DFT and stability analysis
  Lukas Wittmann         : regularized MP2, r2SCAN double-hybrids, wr2SCAN        
                                                                         
We gratefully acknowledge several colleagues who have allowed us to      
interface, adapt or use parts of their codes:                            
  Ed Valeev, F. Pavosevic, A. Kumar             : LibInt (2-el integral package), F12 methods 
  Garnet Chan, S. Sharma, J. Yang, R. Olivares  : DMRG                   
  Ulf Ekstrom                                   : XCFun DFT Library      
  Mihaly Kallay                                 : mrcc  (arbitrary order and MRCC methods)
  Frank Weinhold                                : gennbo (NPA and NBO analysis)           
  Simon Mueller                                 : openCOSMO-RS                            
  Christopher J. Cramer and Donald G. Truhlar   : smd solvation model                     
  S Lehtola, MJT Oliveira, MAL Marques          : LibXC Library                           
  Liviu Ungur et al                             : ANISO software                          


 Your calculation uses the libint2 library for the computation of 2-el integrals
 For citations please refer to: http://libint.valeyev.net

 Your ORCA version has been built with support for libXC version: 7.0.0
 For citations please refer to: https://libxc.gitlab.io

 This ORCA versions uses:
   CBLAS   interface :  Fast vector & matrix operations
   LAPACKE interface :  Fast linear algebra routines
   Shared memory     :  Shared parallel matrices


  ***********************************
  * Starting time: Mon Mar 30 17:49:53 2026
  * Host name:     DESKTOP-E59RH2R
  * Process ID:    83496
  * Working dir.:  C:\Users\gnome\Desktop\Vitya_Diplom\Vitya_DiplomB12\05_spin_comparison\b12_hexagonal_prism\mult_1\sp
  ***********************************

NOTE: MaxCore=1800 MB was set to SCF,MP2,MDCI,CIPSI,MRCI,RASCI and CIS
      => If you want to overwrite this, your respective input block should be placed after the MaxCore statement
Your calculation utilizes the atom-pairwise dispersion correction
based on EEQ partial charges (D4)


================================================================================

----- Orbital basis set information -----
Your calculation utilizes the basis: def2-TZVPP
   F. Weigend and R. Ahlrichs, Phys. Chem. Chem. Phys. 7, 3297 (2005).

----- AuxJ basis set information -----
Your calculation utilizes the auxiliary basis: def2/J
   H-Rn: F. Weigend, Phys. Chem. Chem. Phys. 8, 1057 (2006).
   Fr-Lr: K. Eichkorn, F. Weigend, O. Treutler, R. Ahlrichs; Theor. Chem. Acc. 97, 119 (1997).

================================================================================
                                        WARNINGS
                       Please study these warnings very carefully!
================================================================================


================================================================================
                                       INPUT FILE
================================================================================
NAME = b12_hexagonal_prism_m1_spinsp.inp
|  1> !pbe0
|  2> !d4
|  3> !def2-tzvpp
|  4> !def2/j
|  5> !rijcosx
|  6> !sp
|  7> !tightscf
|  8> 
|  9> %output
| 10>     jsonpropfile true
| 11>     jsongbwfile true
| 12> end
| 13> 
| 14> %maxcore 1800
| 15> %pal
| 16>   nprocs 10
| 17> end
| 18> 
| 19> * xyz 0 1
| 20> B             1.9301404223625500             0.5863694912199900             0.5915065893355700
| 21> B             0.5793242258933901             1.0891259437110501             1.0906586793832400
| 22> B            -0.9802174520553100             0.7801610646355700             0.7775332497678800
| 23> B            -1.9296391527099399            -0.5862341781584099             0.5926134841018600
| 24> B            -0.5785821596626201            -1.0889947466144101             1.0913532520169900
| 25> B             0.9807098687364600            -0.7801128213042900             0.7766955471985900
| 26> B             1.9258811666007101            -0.5982734711129800            -0.5926826398086300
| 27> B             0.9848978367725900             0.7739524027853000            -0.7770270966171400
| 28> B            -0.5726682081071400             1.0922121579460400            -1.0913008797014800
| 29> B            -1.9264074536487601             0.5983419164957000            -0.5914476606960200
| 30> B            -0.9853338793088500            -0.7740875799652800            -0.7763801683822100
| 31> B             0.5718947851269101            -1.0924601796382800            -1.0915223565986700
| 32> *
| 33> 
| 34>                          ****END OF INPUT****
================================================================================

                       ****************************
                       * Single Point Calculation *
                       ****************************

---------------------------------
CARTESIAN COORDINATES (ANGSTROEM)
---------------------------------
  B      1.930140    0.586369    0.591507
  B      0.579324    1.089126    1.090659
  B     -0.980217    0.780161    0.777533
  B     -1.929639   -0.586234    0.592613
  B     -0.578582   -1.088995    1.091353
  B      0.980710   -0.780113    0.776696
  B      1.925881   -0.598273   -0.592683
  B      0.984898    0.773952   -0.777027
  B     -0.572668    1.092212   -1.091301
  B     -1.926407    0.598342   -0.591448
  B     -0.985334   -0.774088   -0.776380
  B      0.571895   -1.092460   -1.091522

----------------------------
CARTESIAN COORDINATES (A.U.)
----------------------------
  NO LB      ZA    FRAG     MASS         X           Y           Z
   0 B     5.0000    0    10.810    3.647437    1.108078    1.117785
   1 B     5.0000    0    10.810    1.094764    2.058150    2.061046
   2 B     5.0000    0    10.810   -1.852343    1.474291    1.469325
   3 B     5.0000    0    10.810   -3.646490   -1.107822    1.119877
   4 B     5.0000    0    10.810   -1.093362   -2.057902    2.062359
   5 B     5.0000    0    10.810    1.853273   -1.474200    1.467742
   6 B     5.0000    0    10.810    3.639388   -1.130573   -1.120008
   7 B     5.0000    0    10.810    1.861187    1.462558   -1.468368
   8 B     5.0000    0    10.810   -1.082186    2.063982   -2.062260
   9 B     5.0000    0    10.810   -3.640383    1.130702   -1.117674
  10 B     5.0000    0    10.810   -1.862011   -1.462814   -1.467146
  11 B     5.0000    0    10.810    1.080725   -2.064451   -2.062678

--------------------------------
INTERNAL COORDINATES (ANGSTROEM)
--------------------------------
 B      0   0   0     0.000000000000     0.00000000     0.00000000
 B      1   0   0     1.525326606391     0.00000000     0.00000000
 B      2   1   0     1.620394111453   136.57297949     0.00000000
 B      3   2   1     1.674106581117   136.28569323    46.35798099
 B      4   3   2     1.525406353650    74.37107996     8.58634795
 B      5   4   3     1.620434862873   136.54953572   316.98706381
 B      6   5   4     1.673801347423   136.29867444   313.65337838
 B      1   2   3     1.673784736432    74.36550411    42.96467243
 B      8   1   2     1.620515123858   136.33366522   351.44384016
 B      9   8   1     1.525244570834   136.54628346   313.70744530
 B      4   3   2     1.673662143470    82.06689242   292.67012560
 B      7   6   5     1.525234633473    74.40057509   351.45968056

---------------------------
INTERNAL COORDINATES (A.U.)
---------------------------
 B      0   0   0     0.000000000000     0.00000000     0.00000000
 B      1   0   0     2.882449550862     0.00000000     0.00000000
 B      2   1   0     3.062101099666   136.57297949     0.00000000
 B      3   2   1     3.163602957306   136.28569323    46.35798099
 B      4   3   2     2.882600251342    74.37107996     8.58634795
 B      5   4   3     3.062178108688   136.54953572   316.98706381
 B      6   5   4     3.163026149218   136.29867444   313.65337838
 B      1   2   3     3.162994758993    74.36550411    42.96467243
 B      8   1   2     3.062329779968   136.33366522   351.44384016
 B      9   8   1     2.882294526127   136.54628346   313.70744530
 B      4   3   2     3.162763091870    82.06689242   292.67012560
 B      7   6   5     2.882275747236    74.40057509   351.45968056

---------------------
BASIS SET INFORMATION
---------------------
There are 1 groups of distinct atoms

 Group   1 Type B   : 11s6p2d1f contracted to 5s3p2d1f pattern {62111/411/11/1}

Atom   0B    basis set group =>   1
Atom   1B    basis set group =>   1
Atom   2B    basis set group =>   1
Atom   3B    basis set group =>   1
Atom   4B    basis set group =>   1
Atom   5B    basis set group =>   1
Atom   6B    basis set group =>   1
Atom   7B    basis set group =>   1
Atom   8B    basis set group =>   1
Atom   9B    basis set group =>   1
Atom  10B    basis set group =>   1
Atom  11B    basis set group =>   1
---------------------------------
AUXILIARY/J BASIS SET INFORMATION
---------------------------------
There are 1 groups of distinct atoms

 Group   1 Type B   : 12s5p4d2f1g contracted to 6s4p3d1f1g pattern {711111/2111/211/2/1}

Atom   0B    basis set group =>   1
Atom   1B    basis set group =>   1
Atom   2B    basis set group =>   1
Atom   3B    basis set group =>   1
Atom   4B    basis set group =>   1
Atom   5B    basis set group =>   1
Atom   6B    basis set group =>   1
Atom   7B    basis set group =>   1
Atom   8B    basis set group =>   1
Atom   9B    basis set group =>   1
Atom  10B    basis set group =>   1
Atom  11B    basis set group =>   1


           ************************************************************
           *        Program running with 10 parallel MPI-processes    *
           *              working on a common directory               *
           ************************************************************
------------------------------------------------------------------------------
                             ORCA STARTUP CALCULATIONS
                           -- RI-GTO INTEGRALS CHOSEN --
------------------------------------------------------------------------------
------------------------------------------------------------------------------
                   ___                                                        
                  /   \      - P O W E R E D   B Y -                         
                 /     \                                                     
                 |  |  |   _    _      __       _____    __    __             
                 |  |  |  | |  | |    /  \     |  _  \  |  |  /  |          
                  \  \/   | |  | |   /    \    | | | |  |  | /  /          
                 / \  \   | |__| |  /  /\  \   | |_| |  |  |/  /          
                |  |  |   |  __  | /  /__\  \  |    /   |      \           
                |  |  |   | |  | | |   __   |  |    \   |  |\   \          
                \     /   | |  | | |  |  |  |  | |\  \  |  | \   \       
                 \___/    |_|  |_| |__|  |__|  |_| \__\ |__|  \__/        
                                                                              
                      - O R C A' S   B I G   F R I E N D -                    
                                      &                                       
                       - I N T E G R A L  F E E D E R -                       
                                                                              
 v1 FN, 2020, v2 2021, v3 2022-2024                                           
------------------------------------------------------------------------------


----------------------
SHARK INTEGRAL PACKAGE
----------------------

Number of atoms                             ...     12
Number of basis functions                   ...    372
Number of shells                            ...    132
Maximum angular momentum                    ...      3
Integral batch strategy                     ... SHARK/LIBINT Hybrid
RI-J (if used) integral strategy            ... SPLIT-RIJ (Revised 2003 algorithm where possible)
Printlevel                                  ...      1
Contraction scheme used                     ... SEGMENTED contraction
Prescreening option                         ... SCHWARTZ
   Thresh                                   ... 2.500e-11
   Tcut                                     ... 2.500e-12
   Tpresel                                  ... 2.500e-12 
Coulomb Range Separation                    ... NOT USED
Exchange Range Separation                   ... NOT USED
Multipole approximations                    ... NOT USED
Finite Nucleus Model                        ... NOT USED
CABS basis                                  ... NOT available
Auxiliary Coulomb fitting basis             ... AVAILABLE
   # of basis functions in Aux-J            ...    588
   # of shells in Aux-J                     ...    180
   Maximum angular momentum in Aux-J        ...      4
Auxiliary J/K fitting basis                 ... NOT available
Auxiliary Correlation fitting basis         ... NOT available
Auxiliary 'external' fitting basis          ... NOT available

Checking pre-screening integrals            ... done (  0.0 sec) Dimension = 132
   => SHARK Basis and OBASIS are compatible. Storing Pre-screening
Shell pair information
Shell pair cut-off parameter TPreSel        ...   2.5e-12
Total number of shell pairs                 ...      8778
Shell pairs after pre-screening             ...      8594
Total number of primitive shell pairs       ...     29184
Primitive shell pairs kept                  ...     22484
          la=0 lb=0:   1662 shell pairs
          la=1 lb=0:   2152 shell pairs
          la=1 lb=1:    666 shell pairs
          la=2 lb=0:   1432 shell pairs
          la=2 lb=1:    864 shell pairs
          la=2 lb=2:    300 shell pairs
          la=3 lb=0:    720 shell pairs
          la=3 lb=1:    432 shell pairs
          la=3 lb=2:    288 shell pairs
          la=3 lb=3:     78 shell pairs

Checking whether 4 symmetric matrices of dimension 372 fit in memory
:Max Core in MB      =   1800.00
 MB in use           =     12.70
 MB left             =   1787.30
 MB needed           =      2.12
 Data fit in memory  = YES
Calculating RI/J V-Matrix + Cholesky decomp.... done (  0.0 sec)
Calculating Nuclear repulsion               ... done (  0.0 sec) ENN=    381.736515089148 Eh

Diagonalization of the overlap matrix:
Smallest eigenvalue                        ... 1.210e-06
Time for diagonalization                   ...    0.008 sec
Threshold for overlap eigenvalues          ... 1.000e-07
Number of eigenvalues below threshold      ... 0
Time for construction of square roots      ...    0.007 sec
Total time needed                          ...    0.017 sec

-------------------
DFT GRID GENERATION
-------------------

General Integration Accuracy     IntAcc      ... 4.388
Radial Grid Type                 RadialGrid  ... OptM3 with GC (2021)
Angular Grid (max. ang.)         AngularGrid ... 4 (Lebedev-302)
Angular grid pruning method      GridPruning ... 4 (adaptive)
Weight generation scheme         WeightScheme... mBecke (2022)
Basis function cutoff            BFCut       ... 1.0000e-11
Integration weight cutoff        WCut        ... 1.0000e-14
Partially contracted basis set               ... off
Rotationally invariant grid construction     ... off
Angular grids for H and He will be reduced by one unit

Total number of grid points                  ...    69970
Total number of batches                      ...     1100
Average number of points per batch           ...       63
Average number of grid points per atom       ...     5831

--------------------
COSX GRID GENERATION
--------------------

GRIDX 1
-------
General Integration Accuracy     IntAcc      ... 3.816
Radial Grid Type                 RadialGrid  ... OptM3 with GC (2021)
Angular Grid (max. ang.)         AngularGrid ... 1 (Lebedev-50)
Angular grid pruning method      GridPruning ... 4 (adaptive)
Weight generation scheme         WeightScheme... mBecke (2022)
Basis function cutoff            BFCut       ... 1.0000e-11
Integration weight cutoff        WCut        ... 1.0000e-14
Partially contracted basis set               ... on
Rotationally invariant grid construction     ... off
Angular grids for H and He will be reduced by one unit

Total number of grid points                  ...     8790
Total number of batches                      ...       72
Average number of points per batch           ...      122
Average number of grid points per atom       ...      732
UseSFitting                                  ... on

GRIDX 2
-------
General Integration Accuracy     IntAcc      ... 4.020
Radial Grid Type                 RadialGrid  ... OptM3 with GC (2021)
Angular Grid (max. ang.)         AngularGrid ... 2 (Lebedev-110)
Angular grid pruning method      GridPruning ... 4 (adaptive)
Weight generation scheme         WeightScheme... mBecke (2022)
Basis function cutoff            BFCut       ... 1.0000e-11
Integration weight cutoff        WCut        ... 1.0000e-14
Partially contracted basis set               ... on
Rotationally invariant grid construction     ... off
Angular grids for H and He will be reduced by one unit

Total number of grid points                  ...    20656
Total number of batches                      ...      168
Average number of points per batch           ...      122
Average number of grid points per atom       ...     1721
UseSFitting                                  ... on

GRIDX 3
-------
General Integration Accuracy     IntAcc      ... 4.338
Radial Grid Type                 RadialGrid  ... OptM3 with GC (2021)
Angular Grid (max. ang.)         AngularGrid ... 3 (Lebedev-194)
Angular grid pruning method      GridPruning ... 4 (adaptive)
Weight generation scheme         WeightScheme... mBecke (2022)
Basis function cutoff            BFCut       ... 1.0000e-11
Integration weight cutoff        WCut        ... 1.0000e-14
Partially contracted basis set               ... on
Rotationally invariant grid construction     ... off
Angular grids for H and He will be reduced by one unit

Total number of grid points                  ...    45893
Total number of batches                      ...      366
Average number of points per batch           ...      125
Average number of grid points per atom       ...     3824
UseSFitting                                  ... on
Grids setup in   0.8 sec
Initializing property integral containers    ... done (  0.0 sec)

SHARK setup successfully completed in   1.0 seconds

Maximum memory used throughout the entire STARTUP-calculation: 27.4 MB


           ************************************************************
           *        Program running with 10 parallel MPI-processes    *
           *              working on a common directory               *
           ************************************************************
-------------------------------------------------------------------------------
                                 ORCA GUESS
                   Start orbitals & Density for SCF / CASSCF
-------------------------------------------------------------------------------

------------
SCF SETTINGS
------------
Hamiltonian:
 Density Functional     Method          .... DFT(GTOs)
 Exchange Functional    Exchange        .... PBE
   PBE kappa parameter   XKappa         ....  0.804000
   PBE mue parameter    XMuePBE         ....  0.219520
 Correlation Functional Correlation     .... PBE
   PBE beta parameter  CBetaPBE         ....  0.066725
 LDA part of GGA corr.  LDAOpt          .... PW91-LDA
 Gradients option       PostSCFGGA      .... off
 Hybrid DFT is turned on
   Fraction HF Exchange ScalHFX         ....  0.250000
   Scaling of DF-GGA-X  ScalDFX         ....  0.750000
   Scaling of DF-GGA-C  ScalDFC         ....  1.000000
   Scaling of DF-LDA-C  ScalLDAC        ....  1.000000
   Perturbative correction              ....  0.000000
   NL short-range parameter             ....  6.900000
 RI-approximation to the Coulomb term is turned on
   Number of AuxJ basis functions       .... 588
   RIJ-COSX (HFX calculated with COS-X)).... on


General Settings:
 Integral files         IntName         .... b12_hexagonal_prism_m1_spinsp
 Hartree-Fock type      HFTyp           .... RHF
 Total Charge           Charge          ....    0
 Multiplicity           Mult            ....    1
 Number of Electrons    NEL             ....   60
 Basis Dimension        Dim             ....  372
 Nuclear Repulsion      ENuc            ....    381.7365150891 Eh

Convergence Acceleration:
 AO-DIIS                CNVDIIS         .... on
   Start iteration      DIISMaxIt       ....    12
   Startup error        DIISStart       ....  0.200000
   # of expansion vecs  DIISMaxEq       ....     5
   Bias factor          DIISBfac        ....   1.050
   Max. coefficient     DIISMaxC        ....  10.000
 MO-DIIS                CNVKDIIS        .... off
 Trust-Rad. Augm. Hess. CNVTRAH         .... auto
   Auto Start mean grad. ratio tolernc. ....  1.125000
   Auto Start start iteration           ....    50
   Auto Start num. interpolation iter.  ....    10
   Max. Number of Micro iterations      ....    24
   Max. Number of Macro iterations      .... Maxiter - #DIIS iter
   Number of Davidson start vectors     ....     2
   Converg. threshold    (grad. norm)   ....   1.000e-05
   Grad. Scal. Fac. for Micro threshold ....   0.100
   Minimum threshold for Micro iter.    ....   1.000e-02
   NR start threshold (gradient norm)   ....   1.000e-04
   Initial trust radius                 ....   0.400
   Minimum AH scaling param. (alpha)    ....   1.000
   Maximum AH scaling param. (alpha)    .... 1000.000
   Quad. conv. algorithm                .... NR
   White noise on init. David. guess    .... on
   Maximum white noise                  ....   0.010
   Pseudo random numbers                .... off
   Inactive MOs                         .... canonical
   Orbital update algorithm             .... Taylor
   Preconditioner                       .... Diag
   Full preconditioner red. dimension   ....   250
 SOSCF                 CNVSOSCF           .... on
   Start iteration     SOSCFMaxIt         ....   150
   Startup grad/error  SOSCFStart         ....  0.003300
   Hessian update      SOSCFHessUp        .... L-BFGS
   Autom. constraints  SOSCFAutoConstrain .... off
 Level Shifting         CNVShift        .... on
   Level shift para.    LevelShift      ....    0.2500
   Turn off err/grad.   ShiftErr        ....    0.0010
 Zerner damping         CNVZerner       .... off
 Static damping         CNVDamp         .... on
   Fraction old density DampFac         ....    0.7000
   Max. Damping (<1)    DampMax         ....    0.9800
   Min. Damping (>=0)   DampMin         ....    0.0000
   Turn off err/grad.   DampErr         ....    0.1000

SCF Procedure:
 Maximum # iterations   MaxIter         ....   125
 SCF integral mode      SCFMode         .... Direct
   Integral package                     .... SHARK and LIBINT hybrid scheme
 Reset frequency        DirectResetFreq ....    20
 Integral Threshold     Thresh          ....  2.500e-11 Eh
 Primitive CutOff       TCut            ....  2.500e-12 Eh

Convergence Tolerance:
 Convergence Check Mode ConvCheckMode   .... Total+1el-Energy
 Convergence forced     ConvForced      .... 0
 Energy Change          TolE            ....  1.000e-08 Eh
 1-El. energy change                    ....  1.000e-05 Eh
 Orbital Gradient       TolG            ....  1.000e-05
 Orbital Rotation angle TolX            ....  1.000e-05
 DIIS Error             TolErr          ....  5.000e-07

------------------------------
INITIAL GUESS: MODEL POTENTIAL
------------------------------
Loading Hartree-Fock densities                     ... done
Calculating cut-offs                               ... done
Initializing the effective Hamiltonian             ... done
Setting up the integral package (SHARK)            ... done
Starting the Coulomb interaction                   ... done (   0.1 sec)
Making the grid                                    ... done (   0.1 sec)
Mapping shells                                     ... done
Starting the XC term evaluation                    ... done (   0.1 sec)
  promolecular density results
     # of electrons  =     60.010784625
     EX              =    -45.853131335
     EC              =     -1.915085549
     EX+EC           =    -47.768216884
Transforming the Hamiltonian                       ... done (   0.0 sec)
Diagonalizing the Hamiltonian                      ... done (   0.0 sec)
Back transforming the eigenvectors                 ... done (   0.0 sec)
Now organizing SCF variables                       ... done
                      ------------------
                      INITIAL GUESS DONE (   0.3 sec)
                      ------------------
             **** ENERGY FILE WAS UPDATED (b12_hexagonal_prism_m1_spinsp.en.tmp) ****
Finished Guess after   0.4 sec
Maximum memory used throughout the entire GUESS-calculation: 20.1 MB


           ************************************************************
           *        Program running with 10 parallel MPI-processes    *
           *              working on a common directory               *
           ************************************************************

-------------------------------------------------------------------------------------------
                                      ORCA LEAN-SCF
                              memory conserving SCF solver
-------------------------------------------------------------------------------------------

----------------------------------------D-I-I-S--------------------------------------------
Iteration    Energy (Eh)           Delta-E    RMSDP     MaxDP     DIISErr   Damp  Time(sec)
-------------------------------------------------------------------------------------------
               ***  Starting incremental Fock matrix formation  ***
    1    -297.0429135215991323     0.00e+00  1.72e-02  1.56e-01  1.63e-01  0.700   1.8
Warning: op=0 Small HOMO/LUMO gap (   0.081) - skipping pre-diagonalization
         Will do a full diagonalization
    2    -297.3062630692353991    -2.63e-01  9.52e-03  8.15e-02  7.98e-02  0.700   1.3
                               ***Turning on AO-DIIS***
    3    -297.4027291610187262    -9.65e-02  3.87e-03  5.18e-02  2.61e-02  0.700   1.3
    4    -297.4581862332509559    -5.55e-02  7.32e-03  8.95e-02  1.39e-02  0.000   1.2
    5    -297.5845224051451510    -1.26e-01  2.22e-03  3.24e-02  7.51e-03  0.000   1.3
                              *** Initializing SOSCF ***
---------------------------------------S-O-S-C-F--------------------------------------
Iteration    Energy (Eh)           Delta-E    RMSDP     MaxDP     MaxGrad    Time(sec)
--------------------------------------------------------------------------------------
    6    -297.5864312004788985    -1.91e-03  1.90e-03  2.88e-02  2.73e-03     1.3
               *** Restarting incremental Fock matrix formation ***
    7    -297.5866647874100295    -2.34e-04  1.87e-03  2.84e-02  6.90e-04     2.2
    8    -297.5866744794826104    -9.69e-06  6.98e-04  1.01e-02  7.17e-04     1.7
    9    -297.5866939102039055    -1.94e-05  3.02e-04  4.57e-03  2.22e-04     1.8
   10    -297.5866930022171459     9.08e-07  8.08e-05  7.64e-04  3.17e-04     1.6
   11    -297.5866961339092427    -3.13e-06  2.88e-05  3.31e-04  4.10e-05     1.7
   12    -297.5866961487815274    -1.49e-08  2.32e-05  3.62e-04  3.21e-05     1.7
   13    -297.5866962069833903    -5.82e-08  2.84e-05  4.22e-04  1.88e-06     1.6
                  *** Gradient check signals convergence ***

               *****************************************************
               *                     SUCCESS                       *
               *           SCF CONVERGED AFTER  13 CYCLES          *
               *****************************************************

Recomputing exchange energy using gridx3       ... done (    3.181 sec)
Old exchange energy                            :    -11.675256847 Eh
New exchange energy                            :    -11.675242763 Eh
Exchange energy change after final integration :      0.000014084 Eh
Total energy after final integration           :   -297.586682128 Eh
             **** ENERGY FILE WAS UPDATED (b12_hexagonal_prism_m1_spinsp.en.tmp) ****

----------------
TOTAL SCF ENERGY
----------------

Total Energy       :       -297.58668212781856 Eh           -8097.74530 eV

Components:
Nuclear Repulsion  :        381.73651508914753 Eh           10387.57867 eV
Electronic Energy  :       -679.32321130099956 Eh          -18485.32436 eV
One Electron Energy:      -1152.28967491077196 Eh          -31355.39613 eV
Two Electron Energy:        472.96646360977240 Eh           12870.07178 eV

Virial components:
Potential Energy   :       -593.51471680834243 Eh          -16150.35651 eV
Kinetic Energy     :        295.92803468052392 Eh            8052.61121 eV
Virial Ratio       :          2.00560490137099

DFT components:
N(Alpha)           :       29.999939241877 electrons
N(Beta)            :       29.999939241877 electrons
N(Total)           :       59.999878483753 electrons
E(X)               :      -34.877592403210 Eh       
E(C)               :       -1.946331692381 Eh       
E(XC)              :      -36.823924095591 Eh       

---------------
SCF CONVERGENCE
---------------

  Last Energy change         ...    5.8202e-08  Tolerance :   1.0000e-08
  Last MAX-Density change    ...    4.2223e-04  Tolerance :   1.0000e-07
  Last RMS-Density change    ...    2.8391e-05  Tolerance :   5.0000e-09
  Last DIIS Error            ...    2.7283e-03  Tolerance :   5.0000e-07
  Last Orbital Gradient      ...    1.8817e-06  Tolerance :   1.0000e-05
  Last Orbital Rotation      ...    6.6637e-06  Tolerance :   1.0000e-05


----------------
ORBITAL ENERGIES
----------------

  NO   OCC          E(Eh)            E(eV) 
   0   2.0000      -6.833699      -185.9544 
   1   2.0000      -6.833668      -185.9536 
   2   2.0000      -6.833638      -185.9527 
   3   2.0000      -6.833631      -185.9525 
   4   2.0000      -6.817792      -185.5215 
   5   2.0000      -6.817786      -185.5214 
   6   2.0000      -6.817748      -185.5204 
   7   2.0000      -6.817742      -185.5202 
   8   2.0000      -6.816160      -185.4771 
   9   2.0000      -6.816145      -185.4767 
  10   2.0000      -6.815739      -185.4657 
  11   2.0000      -6.815738      -185.4657 
  12   2.0000      -0.840994       -22.8846 
  13   2.0000      -0.763696       -20.7812 
  14   2.0000      -0.617096       -16.7920 
  15   2.0000      -0.617033       -16.7903 
  16   2.0000      -0.571013       -15.5380 
  17   2.0000      -0.495258       -13.4766 
  18   2.0000      -0.495228       -13.4758 
  19   2.0000      -0.409184       -11.1345 
  20   2.0000      -0.389830       -10.6078 
  21   2.0000      -0.379238       -10.3196 
  22   2.0000      -0.378807       -10.3079 
  23   2.0000      -0.371298       -10.1035 
  24   2.0000      -0.371259       -10.1025 
  25   2.0000      -0.347736        -9.4624 
  26   2.0000      -0.314629        -8.5615 
  27   2.0000      -0.270835        -7.3698 
  28   2.0000      -0.240266        -6.5380 
  29   2.0000      -0.240241        -6.5373 
  30   0.0000      -0.143789        -3.9127 
  31   0.0000      -0.083104        -2.2614 
  32   0.0000      -0.083045        -2.2598 
  33   0.0000      -0.048965        -1.3324 
  34   0.0000      -0.033123        -0.9013 
  35   0.0000      -0.033000        -0.8980 
  36   0.0000      -0.032959        -0.8969 
  37   0.0000       0.001347         0.0367 
  38   0.0000       0.001369         0.0373 
  39   0.0000       0.008948         0.2435 
  40   0.0000       0.021820         0.5938 
*Only the first 10 virtual orbitals were printed.

                    ********************************
                    * MULLIKEN POPULATION ANALYSIS *
                    ********************************

-----------------------
MULLIKEN ATOMIC CHARGES
-----------------------
   0 B :   -0.007037
   1 B :   -0.276784
   2 B :    0.283630
   3 B :   -0.006662
   4 B :   -0.276899
   5 B :    0.283611
   6 B :   -0.007284
   7 B :    0.283789
   8 B :   -0.276510
   9 B :   -0.007061
  10 B :    0.283675
  11 B :   -0.276470
Sum of atomic charges:    0.0000000

--------------------------------
MULLIKEN REDUCED ORBITAL CHARGES
--------------------------------
  0 B s       :     2.875692  s :     2.875692
      pz      :     0.722055  p :     2.029967
      px      :     0.585676
      py      :     0.722236
      dz2     :     0.028010  d :     0.092283
      dxz     :     0.014793
      dyz     :     0.013908
      dx2y2   :     0.020827
      dxy     :     0.014745
      f0      :     0.001895  f :     0.009095
      f+1     :     0.000765
      f-1     :     0.000818
      f+2     :     0.000457
      f-2     :     0.002519
      f+3     :     0.001120
      f-3     :     0.001521

  1 B s       :     3.366036  s :     3.366036
      pz      :     0.524840  p :     1.784998
      px      :     0.735510
      py      :     0.524648
      dz2     :     0.025389  d :     0.116922
      dxz     :     0.026438
      dyz     :     0.008223
      dx2y2   :     0.030411
      dxy     :     0.026462
      f0      :     0.000876  f :     0.008828
      f+1     :     0.002272
      f-1     :     0.001184
      f+2     :     0.001116
      f-2     :     0.000786
      f+3     :     0.001791
      f-3     :     0.000805

  2 B s       :     2.646241  s :     2.646241
      pz      :     0.648606  p :     1.863771
      px      :     0.566946
      py      :     0.648220
      dz2     :     0.035338  d :     0.190791
      dxz     :     0.038438
      dyz     :     0.042726
      dx2y2   :     0.035950
      dxy     :     0.038339
      f0      :     0.003432  f :     0.015566
      f+1     :     0.001290
      f-1     :     0.002556
      f+2     :     0.002148
      f-2     :     0.001866
      f+3     :     0.001256
      f-3     :     0.003017

  3 B s       :     2.875327  s :     2.875327
      pz      :     0.721965  p :     2.029983
      px      :     0.585787
      py      :     0.722231
      dz2     :     0.028007  d :     0.092258
      dxz     :     0.014795
      dyz     :     0.013910
      dx2y2   :     0.020811
      dxy     :     0.014734
      f0      :     0.001897  f :     0.009094
      f+1     :     0.000763
      f-1     :     0.000818
      f+2     :     0.000457
      f-2     :     0.002520
      f+3     :     0.001119
      f-3     :     0.001521

  4 B s       :     3.366177  s :     3.366177
      pz      :     0.524814  p :     1.785018
      px      :     0.735477
      py      :     0.524727
      dz2     :     0.025382  d :     0.116878
      dxz     :     0.026417
      dyz     :     0.008222
      dx2y2   :     0.030402
      dxy     :     0.026455
      f0      :     0.000876  f :     0.008826
      f+1     :     0.002272
      f-1     :     0.001183
      f+2     :     0.001114
      f-2     :     0.000786
      f+3     :     0.001791
      f-3     :     0.000805

  5 B s       :     2.646175  s :     2.646175
      pz      :     0.648823  p :     1.863789
      px      :     0.566772
      py      :     0.648194
      dz2     :     0.035354  d :     0.190855
      dxz     :     0.038469
      dyz     :     0.042749
      dx2y2   :     0.035954
      dxy     :     0.038329
      f0      :     0.003434  f :     0.015569
      f+1     :     0.001289
      f-1     :     0.002558
      f+2     :     0.002148
      f-2     :     0.001867
      f+3     :     0.001257
      f-3     :     0.003015

  6 B s       :     2.875851  s :     2.875851
      pz      :     0.721923  p :     2.030082
      px      :     0.586761
      py      :     0.721397
      dz2     :     0.028003  d :     0.092259
      dxz     :     0.014726
      dyz     :     0.013988
      dx2y2   :     0.020767
      dxy     :     0.014774
      f0      :     0.001896  f :     0.009092
      f+1     :     0.000755
      f-1     :     0.000825
      f+2     :     0.000460
      f-2     :     0.002517
      f+3     :     0.001089
      f-3     :     0.001550

  7 B s       :     2.645940  s :     2.645940
      pz      :     0.648756  p :     1.863790
      px      :     0.565574
      py      :     0.649460
      dz2     :     0.035351  d :     0.190908
      dxz     :     0.038351
      dyz     :     0.042879
      dx2y2   :     0.035864
      dxy     :     0.038462
      f0      :     0.003433  f :     0.015572
      f+1     :     0.001300
      f-1     :     0.002550
      f+2     :     0.002147
      f-2     :     0.001868
      f+3     :     0.001234
      f-3     :     0.003041

  8 B s       :     3.365974  s :     3.365974
      pz      :     0.524678  p :     1.784847
      px      :     0.735277
      py      :     0.524892
      dz2     :     0.025403  d :     0.116862
      dxz     :     0.026431
      dyz     :     0.008184
      dx2y2   :     0.030373
      dxy     :     0.026471
      f0      :     0.000874  f :     0.008826
      f+1     :     0.002280
      f-1     :     0.001178
      f+2     :     0.001108
      f-2     :     0.000792
      f+3     :     0.001781
      f-3     :     0.000813

  9 B s       :     2.875691  s :     2.875691
      pz      :     0.721956  p :     2.030048
      px      :     0.586791
      py      :     0.721301
      dz2     :     0.027998  d :     0.092230
      dxz     :     0.014719
      dyz     :     0.013974
      dx2y2   :     0.020761
      dxy     :     0.014779
      f0      :     0.001893  f :     0.009092
      f+1     :     0.000758
      f-1     :     0.000825
      f+2     :     0.000458
      f-2     :     0.002517
      f+3     :     0.001089
      f-3     :     0.001551

 10 B s       :     2.646050  s :     2.646050
      pz      :     0.648849  p :     1.863784
      px      :     0.565479
      py      :     0.649457
      dz2     :     0.035342  d :     0.190919
      dxz     :     0.038381
      dyz     :     0.042892
      dx2y2   :     0.035854
      dxy     :     0.038450
      f0      :     0.003433  f :     0.015572
      f+1     :     0.001298
      f-1     :     0.002552
      f+2     :     0.002148
      f-2     :     0.001867
      f+3     :     0.001236
      f-3     :     0.003039

 11 B s       :     3.365945  s :     3.365945
      pz      :     0.524752  p :     1.784828
      px      :     0.735248
      py      :     0.524829
      dz2     :     0.025386  d :     0.116870
      dxz     :     0.026441
      dyz     :     0.008183
      dx2y2   :     0.030382
      dxy     :     0.026478
      f0      :     0.000875  f :     0.008826
      f+1     :     0.002278
      f-1     :     0.001178
      f+2     :     0.001107
      f-2     :     0.000793
      f+3     :     0.001782
      f-3     :     0.000813



                     *******************************
                     * LOEWDIN POPULATION ANALYSIS *
                     *******************************

----------------------
LOEWDIN ATOMIC CHARGES
----------------------
   0 B :    0.018089
   1 B :    0.042022
   2 B :   -0.059853
   3 B :    0.017889
   4 B :    0.042141
   5 B :   -0.060033
   6 B :    0.017929
   7 B :   -0.060312
   8 B :    0.042205
   9 B :    0.017986
  10 B :   -0.060257
  11 B :    0.042193

-------------------------------
LOEWDIN REDUCED ORBITAL CHARGES
-------------------------------
  0 B s       :     2.508594  s :     2.508594
      pz      :     0.715139  p :     1.984876
      px      :     0.554335
      py      :     0.715402
      dz2     :     0.099229  d :     0.405340
      dxz     :     0.080155
      dyz     :     0.066384
      dx2y2   :     0.079437
      dxy     :     0.080135
      f0      :     0.014653  f :     0.083101
      f+1     :     0.008249
      f-1     :     0.007484
      f+2     :     0.007111
      f-2     :     0.021831
      f+3     :     0.009496
      f-3     :     0.014278

  1 B s       :     2.565362  s :     2.565362
      pz      :     0.511296  p :     1.890772
      px      :     0.868115
      py      :     0.511361
      dz2     :     0.084998  d :     0.426394
      dxz     :     0.103480
      dyz     :     0.036992
      dx2y2   :     0.097422
      dxy     :     0.103502
      f0      :     0.008058  f :     0.075450
      f+1     :     0.017578
      f-1     :     0.007125
      f+2     :     0.009120
      f-2     :     0.005690
      f+3     :     0.017821
      f-3     :     0.010057

  2 B s       :     2.479852  s :     2.479852
      pz      :     0.610653  p :     1.894898
      px      :     0.674249
      py      :     0.609996
      dz2     :     0.103731  d :     0.587002
      dxz     :     0.117918
      dyz     :     0.124083
      dx2y2   :     0.123627
      dxy     :     0.117643
      f0      :     0.020671  f :     0.098101
      f+1     :     0.009951
      f-1     :     0.014914
      f+2     :     0.012996
      f-2     :     0.010926
      f+3     :     0.009947
      f-3     :     0.018696

  3 B s       :     2.508552  s :     2.508552
      pz      :     0.715100  p :     1.984986
      px      :     0.554436
      py      :     0.715450
      dz2     :     0.099255  d :     0.405453
      dxz     :     0.080178
      dyz     :     0.066421
      dx2y2   :     0.079462
      dxy     :     0.080137
      f0      :     0.014665  f :     0.083120
      f+1     :     0.008243
      f-1     :     0.007492
      f+2     :     0.007110
      f-2     :     0.021834
      f+3     :     0.009497
      f-3     :     0.014280

  4 B s       :     2.565427  s :     2.565427
      pz      :     0.511193  p :     1.890707
      px      :     0.868081
      py      :     0.511433
      dz2     :     0.084972  d :     0.426294
      dxz     :     0.103447
      dyz     :     0.036971
      dx2y2   :     0.097403
      dxy     :     0.103502
      f0      :     0.008057  f :     0.075431
      f+1     :     0.017573
      f-1     :     0.007119
      f+2     :     0.009118
      f-2     :     0.005692
      f+3     :     0.017816
      f-3     :     0.010056

  5 B s       :     2.479808  s :     2.479808
      pz      :     0.610985  p :     1.894952
      px      :     0.674045
      py      :     0.609922
      dz2     :     0.103761  d :     0.587151
      dxz     :     0.117986
      dyz     :     0.124186
      dx2y2   :     0.123607
      dxy     :     0.117610
      f0      :     0.020687  f :     0.098122
      f+1     :     0.009943
      f-1     :     0.014926
      f+2     :     0.013002
      f-2     :     0.010934
      f+3     :     0.009948
      f-3     :     0.018682

  6 B s       :     2.508545  s :     2.508545
      pz      :     0.715074  p :     1.984992
      px      :     0.555371
      py      :     0.714547
      dz2     :     0.099246  d :     0.405423
      dxz     :     0.080086
      dyz     :     0.066530
      dx2y2   :     0.079458
      dxy     :     0.080102
      f0      :     0.014665  f :     0.083111
      f+1     :     0.008191
      f-1     :     0.007536
      f+2     :     0.007192
      f-2     :     0.021752
      f+3     :     0.009435
      f-3     :     0.014339

  7 B s       :     2.479712  s :     2.479712
      pz      :     0.610919  p :     1.895073
      px      :     0.672298
      py      :     0.611856
      dz2     :     0.103797  d :     0.587369
      dxz     :     0.117564
      dyz     :     0.124668
      dx2y2   :     0.123434
      dxy     :     0.117906
      f0      :     0.020687  f :     0.098158
      f+1     :     0.009984
      f-1     :     0.014899
      f+2     :     0.012977
      f-2     :     0.010961
      f+3     :     0.009829
      f-3     :     0.018820

  8 B s       :     2.565462  s :     2.565462
      pz      :     0.511058  p :     1.890627
      px      :     0.868431
      py      :     0.511138
      dz2     :     0.084969  d :     0.426276
      dxz     :     0.103558
      dyz     :     0.036827
      dx2y2   :     0.097310
      dxy     :     0.103611
      f0      :     0.008050  f :     0.075430
      f+1     :     0.017613
      f-1     :     0.007080
      f+2     :     0.009117
      f-2     :     0.005703
      f+3     :     0.017780
      f-3     :     0.010088

  9 B s       :     2.508613  s :     2.508613
      pz      :     0.715155  p :     1.984967
      px      :     0.555321
      py      :     0.714492
      dz2     :     0.099236  d :     0.405347
      dxz     :     0.080086
      dyz     :     0.066499
      dx2y2   :     0.079436
      dxy     :     0.080090
      f0      :     0.014648  f :     0.083087
      f+1     :     0.008197
      f-1     :     0.007532
      f+2     :     0.007194
      f-2     :     0.021752
      f+3     :     0.009433
      f-3     :     0.014331

 10 B s       :     2.479733  s :     2.479733
      pz      :     0.611115  p :     1.895054
      px      :     0.672089
      py      :     0.611850
      dz2     :     0.103787  d :     0.587319
      dxz     :     0.117584
      dyz     :     0.124683
      dx2y2   :     0.123403
      dxy     :     0.117862
      f0      :     0.020690  f :     0.098150
      f+1     :     0.009974
      f-1     :     0.014905
      f+2     :     0.012982
      f-2     :     0.010962
      f+3     :     0.009831
      f-3     :     0.018807

 11 B s       :     2.565438  s :     2.565438
      pz      :     0.511094  p :     1.890632
      px      :     0.868455
      py      :     0.511083
      dz2     :     0.084957  d :     0.426293
      dxz     :     0.103589
      dyz     :     0.036808
      dx2y2   :     0.097312
      dxy     :     0.103627
      f0      :     0.008055  f :     0.075443
      f+1     :     0.017612
      f-1     :     0.007079
      f+2     :     0.009112
      f-2     :     0.005706
      f+3     :     0.017787
      f-3     :     0.010092



                      *****************************
                      * MAYER POPULATION ANALYSIS *
                      *****************************

  NA   - Mulliken gross atomic population
  ZA   - Total nuclear charge
  QA   - Mulliken gross atomic charge
  VA   - Mayer's total valence
  BVA  - Mayer's bonded valence
  FA   - Mayer's free valence

  ATOM       NA         ZA         QA         VA         BVA        FA
  0 B      5.0070     5.0000    -0.0070     3.9368     3.9368     0.0000
  1 B      5.2768     5.0000    -0.2768     3.6146     3.6146     0.0000
  2 B      4.7164     5.0000     0.2836     3.2928     3.2928    -0.0000
  3 B      5.0067     5.0000    -0.0067     3.9369     3.9369     0.0000
  4 B      5.2769     5.0000    -0.2769     3.6145     3.6145     0.0000
  5 B      4.7164     5.0000     0.2836     3.2926     3.2926    -0.0000
  6 B      5.0073     5.0000    -0.0073     3.9374     3.9374     0.0000
  7 B      4.7162     5.0000     0.2838     3.2918     3.2918    -0.0000
  8 B      5.2765     5.0000    -0.2765     3.6143     3.6143     0.0000
  9 B      5.0071     5.0000    -0.0071     3.9375     3.9375     0.0000
 10 B      4.7163     5.0000     0.2837     3.2920     3.2920    -0.0000
 11 B      5.2765     5.0000    -0.2765     3.6142     3.6142     0.0000

  Mayer bond orders larger than 0.100000
B(  0-B ,  1-B ) :   1.2601 B(  0-B ,  4-B ) :   0.1490 B(  0-B ,  5-B ) :   0.7590 
B(  0-B ,  6-B ) :   0.6742 B(  0-B ,  7-B ) :   0.7593 B(  0-B ,  8-B ) :   0.1488 
B(  0-B , 11-B ) :   0.1469 B(  1-B ,  2-B ) :   0.6980 B(  1-B ,  3-B ) :   0.1491 
B(  1-B ,  4-B ) :   0.2760 B(  1-B ,  5-B ) :   0.2686 B(  1-B ,  6-B ) :   0.1469 
B(  1-B ,  7-B ) :   0.2689 B(  1-B ,  8-B ) :   0.2759 B(  1-B ,  9-B ) :   0.1491 
B(  1-B , 10-B ) :  -0.1110 B(  1-B , 11-B ) :   0.2330 B(  2-B ,  3-B ) :   0.7592 
B(  2-B ,  4-B ) :   0.2688 B(  2-B ,  5-B ) :   0.2464 B(  2-B ,  7-B ) :   0.2466 
B(  2-B ,  8-B ) :   0.2686 B(  2-B ,  9-B ) :   0.7594 B(  2-B , 10-B ) :   0.2458 
B(  2-B , 11-B ) :  -0.1107 B(  3-B ,  4-B ) :   1.2599 B(  3-B ,  8-B ) :   0.1468 
B(  3-B ,  9-B ) :   0.6739 B(  3-B , 10-B ) :   0.7594 B(  3-B , 11-B ) :   0.1488 
B(  4-B ,  5-B ) :   0.6981 B(  4-B ,  6-B ) :   0.1490 B(  4-B ,  7-B ) :  -0.1109 
B(  4-B ,  8-B ) :   0.2330 B(  4-B ,  9-B ) :   0.1471 B(  4-B , 10-B ) :   0.2687 
B(  4-B , 11-B ) :   0.2759 B(  5-B ,  6-B ) :   0.7593 B(  5-B ,  7-B ) :   0.2459 
B(  5-B ,  8-B ) :  -0.1107 B(  5-B , 10-B ) :   0.2466 B(  5-B , 11-B ) :   0.2685 
B(  6-B ,  7-B ) :   0.7587 B(  6-B ,  8-B ) :   0.1489 B(  6-B , 11-B ) :   1.2606 
B(  7-B ,  8-B ) :   0.6977 B(  7-B , 10-B ) :   0.2466 B(  7-B , 11-B ) :   0.2683 
B(  8-B ,  9-B ) :   1.2606 B(  8-B , 10-B ) :   0.2687 B(  8-B , 11-B ) :   0.2761 
B(  9-B , 10-B ) :   0.7587 B(  9-B , 11-B ) :   0.1488 B( 10-B , 11-B ) :   0.6979 


-------
TIMINGS
-------

Total SCF time: 0 days 0 hours 0 min 25 sec 

Total time                  ....      25.519 sec
Sum of individual times     ....      23.993 sec  ( 94.0%)

SCF preparation             ....       0.145 sec  (  0.6%)
Fock matrix formation       ....      22.285 sec  ( 87.3%)
  Startup                   ....       0.043 sec  (  0.2% of F)
  Split-RI-J                ....       1.799 sec  (  8.1% of F)
  Chain of spheres X        ....      16.991 sec  ( 76.2% of F)
  XC integration            ....       4.466 sec  ( 20.0% of F)
    Basis function eval.    ....       0.739 sec  ( 16.5% of XC)
    Density eval.           ....       0.986 sec  ( 22.1% of XC)
    XC-Functional eval.     ....       0.034 sec  (  0.8% of XC)
    XC-Potential eval.      ....       2.073 sec  ( 46.4% of XC)
Diagonalization             ....       0.000 sec  (  0.0%)
Density matrix formation    ....       0.302 sec  (  1.2%)
Total Energy calculation    ....       0.129 sec  (  0.5%)
Population analysis         ....       0.069 sec  (  0.3%)
Orbital Transformation      ....       0.092 sec  (  0.4%)
Orbital Orthonormalization  ....       0.000 sec  (  0.0%)
DIIS solution               ....       0.432 sec  (  1.7%)
SOSCF solution              ....       0.539 sec  (  2.1%)
Finished LeanSCF after  25.6 sec

Maximum memory used throughout the entire LEANSCF-calculation: 34.0 MB


-------------------------------------------------------------------------------
                          DFT DISPERSION CORRECTION                            
                                                                               
                                DFTD4 V3.4.0                                   
-------------------------------------------------------------------------------
The PBE0 functional is recognized
Active option DFTDOPT                   ...         5   

-------------------------   ----------------
Dispersion correction           -0.020263577
-------------------------   ----------------


-------------------------   --------------------
FINAL SINGLE POINT ENERGY      -297.606945704388
-------------------------   --------------------



           ************************************************************
           *        Program running with 10 parallel MPI-processes    *
           *              working on a common directory               *
           ************************************************************

------------------------------------------------------------------------------
                              ORCA PROPERTY CALCULATIONS
------------------------------------------------------------------------------

GBWName                                 ... b12_hexagonal_prism_m1_spinsp.gbw
Number of atoms                         ...     12
Number of basis functions               ...    372
Max core memory                         ...   1800 MB

Electric properties:
Dipole moment                           ... YES
Quadrupole moment                       ...  NO
Static polarizability (Dipole/Dipole)   ...  NO
Static polarizability (Dipole/Quad.)    ...  NO
Static polarizability (Quad./Quad.)     ...  NO
Static polarizability (Velocity)        ...  NO
Static hyperpolarizability              ...  NO

Atomic electric properties:
Dipole moment                           ...  NO
Quadrupole moment                       ...  NO
Static polarizability                   ...  NO

Choice of electric origin               ... Center of mass
Position of electric origin             ...    -0.000000    -0.000000    -0.000000

General magnetic properties:
Magnetizability                         ...  NO

EPR properties:
g-Tensor (aka g-matrix)                 ...  NO
Zero-Field splitting spin-orbit         ...  NO
Zero-field splitting spin-spin          ...  NO
Hyperfine couplings                     ...  NO (   0 nuclei)
Quadrupole couplings                    ...  NO (   0 nuclei)
Contact density                         ...  NO (   0 nuclei)

NMR properties:
Chemical shifts                         ...  NO (   0 nuclei)
Spin-rotation constants                 ...  NO (   0 nuclei)
Spin-spin couplings                     ...  NO (   0 nuclei,    0 pairs)

Choice of magnetic origin               ... GIAO
Position of magnetic origin             ...     0.000000     0.000000     0.000000

Properties with geometric perturbations:
SCF Hessian                             ...  NO
IR spectrum                             ...  NO
VCD spectrum                            ...  NO
X-ray spectroscopy properties:
SCF XES/XAS/RIXS spectra                ...  NO

SCF SOC stabilization energy            ...  NO
Diagonal Born-Oppenheimer correction    ...  NO

-------------
DIPOLE MOMENT
-------------

Method             : SCF
Type of density    : Electron Density
Multiplicity       :   1
Irrep              :   0
Energy             :  -297.5866821278185625 Eh
Basis              : AO
                                X                 Y                 Z
Electronic contribution:      0.000013281       0.000165834       0.000004476
Nuclear contribution   :     -0.000000000      -0.000000000      -0.000000000
                        -----------------------------------------
Total Dipole Moment    :      0.000013281       0.000165834       0.000004476
                        -----------------------------------------
Magnitude (a.u.)       :      0.000166425
Magnitude (Debye)      :      0.000423019



--------------------
Rotational spectrum 
--------------------
 
Rotational constants in cm-1:             0.090894             0.054459             0.054455 
Rotational constants in MHz :          2724.941171          1632.639433          1632.510324 

Dipole components along the rotational axes: 
x,y,z [a.u.] :    -0.000013     0.000028     0.000164 
x,y,z [Debye]:    -0.000032     0.000070     0.000416 

 

Dipole moment calculation done in   0.0 sec 

Maximum memory used throughout the entire PROP-calculation: 19.0 MB
Converting b12_hexagonal_prism_m1_spinsp.gbw to JSON (see b12_hexagonal_prism_m1_spinsp.2jsonout) ... done

--------------------------------
SUGGESTED CITATIONS FOR THIS RUN
--------------------------------

Below you find a list of papers that are relevant to this ORCA run
We neither can nor want to force you to cite these papers, but we appreciate if you do
You receive ORCA, which is the product of decades of hard work by many enthusiastic individuals, for free
The only thing we kindly ask in return is that you cite our papers,
We deeply appreciate it, if you show your appreciation for ORCA by not just citing the generic ORCA reference.

Please note that relegating all ORCA citations to the supporting information does *not* help us.
SI sections are not indexed - citations you put there will not count into any citation statistics
But we need these citations in order to attract the funding resources that allow us to do what we are doing

Therefore, if you are a happy ORCA user, please consider citing a few of the papers listed below in the main body of your paper

In addition to the list printed below, the program has created the file b12_hexagonal_prism_m1_spinsp.bibtex that contains the list in bibtex format
You can import this file easily into all common literature databanks and citation aid programs

It goes without saying that in many instances, there are alternative algorithms to achieve similar
results as the ones you have gotten from ORCA. It is, of course, also the case that in some instances
ORCA just re-implements algorithms worked out by others. We are fully aware of that and we are also
fully appreciative of our colleagues work. Hence this citation list should not be read as indicating
that the listed papers, which are focused on our own work, are the only ones worth citing. It simply
meant to make it easier for users to cite ORCA specific papers. It is not a substitute for doing your
own literature research and citing the relevant literature in a scientifically appropriate manner.

List of essential papers. We consider these as the minimum necessary citations

  1. Neese, F.
     Software update: the ORCA program system, version 6.0
     WIRES Comput. Molec. Sci. 2025 15(1), e70019
     doi.org/10.1002/wcms.70019

List of papers to cite with high priority. The work reported in these papers was absolutely
necessary for this run to complete.
Our perspective: the developers of density functionals and basis sets usually get cited in chemistry papers
Good! But without the algorithms to do something with them, the functionals or basis sets would not do anything.
Hence, in our opinion, the algorithm design and method developments papers are equally worthy of getting cited

  1. Neese, F.
     An improvement of the resolution of the identity approximation for the formation of the Coulomb matrix
     J. Comp. Chem. 2003 24(14), 1740-1747
     doi.org/10.1002/jcc.10318
  2. Neese, F.; Wennmohs, F.; Hansen, A.; Becker, U.
     Efficient, approximate and parallel Hartree-Fock and hybrid DFT calculations. A 'chain-of-spheres' algorithm for the Hartree-Fock exchange
     Chem. Phys. 2009 356(1-3), 98-109
     doi.org/10.1016/j.chemphys.2008.10.036
  3. Caldeweyher, E.; Bannwarth, C.; Grimme, S.
     Extension of the D3 dispersion coefficient model
     J. Chem. Phys. 2017 147 , 034112
     doi.org/10.1063/1.4993215
  4. Caldeweyher, E.; Ehlert, S.; Hansen, A.; Neugebauer, H.; Spicher, S.; Bannwarth, C.; Grimme, S.
     A generally applicable atomic-charge dependent London dispersion correction
     J. Chem. Phys. 2019 150 , 154122
     doi.org/10.1063/1.5090222
  5. Helmich-Paris, B.; de Souza, B.; Neese, F.; Izsák, R.
     An improved chain of spheres for exchange algorithm
     J. Chem. Phys. 2021 155(10), 104109
     doi.org/10.1063/5.0058766
  6. Neese, F.
     The SHARK Integral Generation and Digestion System
     J. Comp. Chem. 2022 44(3), 381
     doi.org/10.1002/jcc.26942

List of suggested additional citations. These are papers that are important in the 'surrounding' of 
of this run, or papers that preceded the highly important papers. If you like your results we are grateful for a citation.

  1. Izsak, R.; Neese, F.
     An overlap fitted chain of spheres exchange method
     J. Chem. Phys. 2011 135 , 144105
     doi.org/10.1063/1.3646921
  2. Izsak, R.; Hansen, A.; Neese, F.
     The resolution of identity and chain of spheres approximations for the LPNO-CCSD singles Fock term
     Molec. Phys. 2012 110 , 2413-2417
     doi.org/10.1080/00268976.2012.687466
  3. Neese, F.
     The ORCA program system
     WIRES Comput. Molec. Sci. 2012 2(1), 73-78
     doi.org/10.1002/wcms.81
  4. Izsak, R.; Neese, F.; Klopper, W.
     Robust fitting techniques in the chain of spheres approximation to the Fock exchange: The role of the complementary space
     J. Chem. Phys. 2013 139 , 
     doi.org/10.1063/1.4819264
  5. Neese, F.
     Software update: the ORCA program system, version 4.0
     WIRES Comput. Molec. Sci. 2018 8(1), 1-6
     doi.org/10.1002/wcms.1327
  6. Neese, F.; Wennmohs, F.; Becker, U.; Riplinger, C.
     The ORCA quantum chemistry program package
     J. Chem. Phys. 2020 152(22), 224108
     doi.org/10.1063/5.0004608
  7. Neese, F.
     Software update: The ORCA program system—Version 5.0
     WIRES Comput. Molec. Sci. 2022 12(1), e1606
     doi.org/10.1002/wcms.1606

List of optional additional citations

  1. Neese, F.
     Approximate second-order SCF convergence for spin unrestricted wavefunctions
     Chem. Phys. Lett. 2000 325(1-3), 93-98
     doi.org/10.1016/s0009-2614(00)00662-x

Timings for individual modules:

Sum of individual times          ...       27.652 sec (=   0.461 min)
Startup calculation              ...        1.181 sec (=   0.020 min)   4.3 %
SCF iterations                   ...       26.306 sec (=   0.438 min)  95.1 %
Property calculations            ...        0.165 sec (=   0.003 min)   0.6 %
                             ****ORCA TERMINATED NORMALLY****
TOTAL RUN TIME: 0 days 0 hours 0 minutes 28 seconds 397 msec
