
                                 *****************
                                 * O   R   C   A *
                                 *****************

                                            #,                                       
                                            ###                                      
                                            ####                                     
                                            #####                                    
                                            ######                                   
                                           ########,                                 
                                     ,,################,,,,,                         
                               ,,#################################,,                 
                          ,,##########################################,,             
                       ,#########################################, ''#####,          
                    ,#############################################,,   '####,        
                  ,##################################################,,,,####,       
                ,###########''''           ''''###############################       
              ,#####''   ,,,,##########,,,,          '''####'''          '####       
            ,##' ,,,,###########################,,,                        '##       
           ' ,,###''''                  '''############,,,                           
         ,,##''                                '''############,,,,        ,,,,,,###''
      ,#''                                            '''#######################'''  
     '                                                          ''''####''''         
             ,#######,   #######,   ,#######,      ##                                
            ,#'     '#,  ##    ##  ,#'     '#,    #''#        ,####,    ,#,          
            ##       ##  ##   ,#'  ##            #'  '#       #'       ,# #          
            ##       ##  #######   ##           ,######,      #####,      #          
            '#,     ,#'  ##    ##  '#,     ,#' ,#      #,     #,   #      #          
             '#######'   ##     ##  '#######'  #'      '#     '####' #    #          



                #########################################################
                #                        -***-                          #
                #          Department of theory and spectroscopy        #
                #                                                       #
                #                      Frank Neese                      #
                #                                                       #
                #     Directorship, Architecture, Infrastructure        #
                #                    SHARK, DRIVERS                     #
                #        Core code/Algorithms in most modules           #
                #                                                       #
                #        Max Planck Institute fuer Kohlenforschung      #
                #                Kaiser Wilhelm Platz 1                 #
                #                 D-45470 Muelheim/Ruhr                 #
                #                      Germany                          #
                #                                                       #
                #                  All rights reserved                  #
                #                        -***-                          #
                #########################################################


                         Program Version 6.1.1  -  RELEASE   -


 With contributions from (in alphabetic order):
[Max-Planck-Institut fuer Kohlenforschung]                               
  Daniel Aravena         : Magnetic Suceptibility                        
  Michael Atanasov       : Ab Initio Ligand Field Theory (pilot matlab implementation)
  Alexander A. Auer      : GIAO ZORA, VPT2 properties, NMR spectrum      
  Ute Becker             : All parallelization in ORCA, NUMFREQ, NUMCALC 
  Giovanni Bistoni       : ED, misc. LED, open-shell LED, HFLD           
  Dmytro Bykov           : pre 5.0 version of the SCF Hessian            
  Marcos Casanova-Páez   : Triplet and SCS-CIS(D). UHF-(DLPNO)-IP/EA/STEOM-CCSD. UHF-CVS-IP/STEOM-CCSD   
  Vijay G. Chilkuri      : MRCI spin determinant printing, contributions to CSF-ICE 
  Pauline Colinet        : FMM embedding                                 
  Dipayan Datta          : RHF DLPNO-CCSD density                        
  Achintya Kumar Dutta   : EOM-CC, STEOM-CC                              
  Nicolas Foglia         : Exact transition moments, OPA infrastructure, MCD improvements    
  Dmitry Ganyushin       : Spin-Orbit,Spin-Spin,Magnetic field MRCI      
  Miquel Garcia-Rates    : C-PCM and meta-GGA Hessian, CCSD/C-PCM, Gaussian charge scheme 
  Tiago L. C. Gouveia    : GS-ROHF, GS-ROCIS                             
  Yang Guo               : DLPNO-NEVPT2, F12-NEVPT2, CIM, IAO-localization        
  Andreas Hansen         : Spin unrestricted coupled pair/coupled cluster methods 
  Ingolf Harden          : AUTO-CI MPn and infrastructure                
  Benjamin Helmich-Paris : MC-RPA, TRAH-(SCF,CASSCF), AVAS, COSX integrals, SCF dyn. polar., MC-PDFT, srDFT 
  Lee Huntington         : MR-EOM, pCC                                   
  Robert Izsak           : Overlap fitted RIJCOSX, COSX-SCS-MP3, EOM     
  Riya Kayal             : Wick's Theorem for AUTO-CI, AUTO-CI UHF-CCSDT 
  Emily Kempfer          : AUTO-CI RHF CISDT and CCSDT, approximate NEVPT4
  Christian Kollmar      : KDIIS, OOCD, Brueckner-CCSD(T), CCSD density, CASPT2, CASPT2-K, improved NEVPT2 
  Axel Koslowski         : Symmetry handling                             
  Simone Kossmann        : meta-GGA functionals, TD-DFT gradient, OOMP2, (MP2 Hessian; deprecated post 5.0) 
  Lucas Lang             : DCDCAS, Hyperfine gauge corrections, ICE-SOC+SSC
  Marvin Lechner         : AUTO-CI (C++ implementation), FIC-MRCC        
  Spencer Leger          : CASSCF response                               
  Dagmar Lenk            : GEPOL surface, SMD, ORCA-2-JSON               
  Dimitrios Liakos       : Extrapolation schemes; Compound Job, Property file
  Dimitrios Manganas     : Further ROCIS development; embedding schemes. LFT, Crystal Embedding 
  Dimitrios Pantazis     : SARC Basis sets                               
  Anastasios Papadopoulos: AUTO-CI, single reference methods and gradients 
  Taras Petrenko         : pre 6.0 DFT Hessian and TD-DFT gradient,  ECA, NRVS 
  Petra Pikulova         : Analytic Raman intensities                    
  Peter Pinski           : DLPNO-MP2, DLPNO-MP2 Gradient                 
  Shashank Vittal Rao    : ES-AILFT, MagRelax                            
  Christoph Reimann      : Effective Core Potentials                     
  Marius Retegan         : Local ZFS, SOC                                
  Christoph Riplinger    : Optimizer, TS searches, QM/MM, DLPNO-CCSD(T), (RO)-DLPNO pert. Triples 
  Michael Roemelt        : Original ROCIS implementation, recursive CI coupling coefficients
  Masaaki Saitow         : Open-shell DLPNO-CCSD energy and density      
  Barbara Sandhoefer     : DKH picture change effects                    
  Yorick L. A. Schmerwitz: GMF and freeze-and-release deltaSCF, NEB S-IDPP initial path                    
  Kantharuban Sivalingam : CASSCF convergence/infrastructure, NEVPT2, NEVPT3, NEVPT4(SD), FIC-MRCI and CEPA variants
  Bernardo de Souza      : ESD, SOC TD-DFT                               
  Georgi L. Stoychev     : AutoAux, RI-MP2 NMR, DLPNO-MP2 response, X2C  
  Van Anh Tran           : RI-MP2 g-tensors                              
  Willem Van den Heuvel  : Paramagnetic NMR                              
  Zikuan Wang            : NOTCH, Electric field optimization            
  Frank Wennmohs         : Technical directorship and infrastructure     
  Hang Xu                : AUTO-CI-Response properties                   
                                                                         
[FACCTs GmbH]                                                            
  Markus Bursch, Nicolas Foglia, Miquel Garcia-Rates, Ingolf Harden, Hagen Neugebauer, Anastasios Papadopoulos, 
  Christoph Riplinger, Bernardo de Souza, Georgi L. Stoychev                                                    
                                                                 
  APM, various basis sets, CI-OPT, improved COSX, DLPNO-Multilevel,           
  DOCKER, DRACO, updates on ESD, Fragmentator, GOAT, IRC, LR-CPCM, L-BFGS, MBIS, meta-GGA TD-DFT gradient, ML-optimized integration grids, 
  MM, NACMEs, nearIR, NEB, NEB-TS, NL-DFT gradient (VV10), 2- and 3-layer-ONIOM, interface openCOSMO-RS, QMMM,   
  Crystal-QMMM, RESP, rigid body optimization, SF, symmetry and pop. for TD-DFT, various functionals, SOLVATOR                                   
                                                                         
[Other institutions]                                                     
  V. Asgeirsson          : NEB                                           
  Christoph Bannwarth    : sTDA-DFT, sTD-DFT, PBEh-3c, B97-3c, D3        
  Giovanni Bistoni       : ETS/NOCV, ADLD/ADEX, COVALED                  
  Martin Brehm           : Molecular dynamics                            
  Ronald Cardenas        : ETS/NOCV                                      
  Martina Colucci        : COVALED                                       
  Sebastian Ehlert       : rSCAN, r2SCAN, r2SCAN-3c, D4, dhf basis sets  
  Marvin Friede          : D4 for Fr, Ra, Ac-Lr                          
  Lars Goerigk           : TD-DFT with DH, B97 family of functionals     
  Stefan Grimme          : VdW corrections, initial TS optimization, DFT functionals, gCP, sTDA/sTD-DF 
  Waldemar Hujo          : DFT-NL                                        
  H. Jonsson             : NEB                                           
  Holger Kruse           : gCP                                           
  Marcel Mueller         : wB97X-3c, vDZP basis set                      
  Hagen Neugebauer       : wr2SCAN, Native XTB                           
  Gianluca Regni         : ADLD/ADEX                                     
  Tobias Risthaus        : pre 6.0 range-separated hybrid DFT and stability analysis
  Lukas Wittmann         : regularized MP2, r2SCAN double-hybrids, wr2SCAN        
                                                                         
We gratefully acknowledge several colleagues who have allowed us to      
interface, adapt or use parts of their codes:                            
  Ed Valeev, F. Pavosevic, A. Kumar             : LibInt (2-el integral package), F12 methods 
  Garnet Chan, S. Sharma, J. Yang, R. Olivares  : DMRG                   
  Ulf Ekstrom                                   : XCFun DFT Library      
  Mihaly Kallay                                 : mrcc  (arbitrary order and MRCC methods)
  Frank Weinhold                                : gennbo (NPA and NBO analysis)           
  Simon Mueller                                 : openCOSMO-RS                            
  Christopher J. Cramer and Donald G. Truhlar   : smd solvation model                     
  S Lehtola, MJT Oliveira, MAL Marques          : LibXC Library                           
  Liviu Ungur et al                             : ANISO software                          


 Your calculation uses the libint2 library for the computation of 2-el integrals
 For citations please refer to: http://libint.valeyev.net

 Your ORCA version has been built with support for libXC version: 7.0.0
 For citations please refer to: https://libxc.gitlab.io

 This ORCA versions uses:
   CBLAS   interface :  Fast vector & matrix operations
   LAPACKE interface :  Fast linear algebra routines
   Shared memory     :  Shared parallel matrices


  ***********************************
  * Starting time: Mon Mar 30 17:48:16 2026
  * Host name:     DESKTOP-E59RH2R
  * Process ID:    84360
  * Working dir.:  C:\Users\gnome\Desktop\Vitya_Diplom\Vitya_DiplomB12\05_spin_comparison\b12_hexagonal_prism\mult_1\freq
  ***********************************

NOTE: MaxCore=1500 MB was set to SCF,MP2,MDCI,CIPSI,MRCI,RASCI and CIS
      => If you want to overwrite this, your respective input block should be placed after the MaxCore statement
Your calculation utilizes the geometrical counterpoise correction gCP
Please cite in your paper:
H.Kruse, S. Grimme J.Chem.Phys., 136, (2012), 154101 
   

Your calculation utilizes the atom-pairwise dispersion correction
based on EEQ partial charges (D4)


================================================================================

----- Orbital basis set information -----
Your calculation utilizes the basis: def2-mTZVPP
   Stefan Grimme, Andreas Hansen, Sebastian Ehlert, and Jan-Michael Mewes 
   J. Chem. Phys. 154, 064103 (2021). DOI: 10.1063/5.0040021

----- AuxJ basis set information -----
Your calculation utilizes the basis: def2-mTZVPP/J
   Stefan Grimme, Andreas Hansen, Sebastian Ehlert, and Jan-Michael Mewes 
   J. Chem. Phys. 154, 000000 (2021). DOI: 10.1063/5.0040021

================================================================================
                                        WARNINGS
                       Please study these warnings very carefully!
================================================================================



WARNING: SCAN, rSCAN, or r2SCAN functional requested.
  ===> : libXC variant has now been activated.



================================================================================
                                       INPUT FILE
================================================================================
NAME = b12_hexagonal_prism_m1_spinfreq.inp
|  1> !r2scan-3c
|  2> !freq
|  3> !tightscf
|  4> 
|  5> %output
|  6>     jsonpropfile true
|  7>     jsongbwfile true
|  8> end
|  9> 
| 10> %freq
| 11>     temp 298.15
| 12>     pressure 1.0
| 13> end
| 14> 
| 15> %maxcore 1500
| 16> %pal
| 17>   nprocs 8
| 18> end
| 19> 
| 20> * xyz 0 1
| 21> B             1.9301404223625500             0.5863694912199900             0.5915065893355700
| 22> B             0.5793242258933901             1.0891259437110501             1.0906586793832400
| 23> B            -0.9802174520553100             0.7801610646355700             0.7775332497678800
| 24> B            -1.9296391527099399            -0.5862341781584099             0.5926134841018600
| 25> B            -0.5785821596626201            -1.0889947466144101             1.0913532520169900
| 26> B             0.9807098687364600            -0.7801128213042900             0.7766955471985900
| 27> B             1.9258811666007101            -0.5982734711129800            -0.5926826398086300
| 28> B             0.9848978367725900             0.7739524027853000            -0.7770270966171400
| 29> B            -0.5726682081071400             1.0922121579460400            -1.0913008797014800
| 30> B            -1.9264074536487601             0.5983419164957000            -0.5914476606960200
| 31> B            -0.9853338793088500            -0.7740875799652800            -0.7763801683822100
| 32> B             0.5718947851269101            -1.0924601796382800            -1.0915223565986700
| 33> *
| 34> 
| 35>                          ****END OF INPUT****
================================================================================

                       ****************************
                       * Single Point Calculation *
                       ****************************

---------------------------------
CARTESIAN COORDINATES (ANGSTROEM)
---------------------------------
  B      1.930140    0.586369    0.591507
  B      0.579324    1.089126    1.090659
  B     -0.980217    0.780161    0.777533
  B     -1.929639   -0.586234    0.592613
  B     -0.578582   -1.088995    1.091353
  B      0.980710   -0.780113    0.776696
  B      1.925881   -0.598273   -0.592683
  B      0.984898    0.773952   -0.777027
  B     -0.572668    1.092212   -1.091301
  B     -1.926407    0.598342   -0.591448
  B     -0.985334   -0.774088   -0.776380
  B      0.571895   -1.092460   -1.091522

----------------------------
CARTESIAN COORDINATES (A.U.)
----------------------------
  NO LB      ZA    FRAG     MASS         X           Y           Z
   0 B     5.0000    0    10.810    3.647437    1.108078    1.117785
   1 B     5.0000    0    10.810    1.094764    2.058150    2.061046
   2 B     5.0000    0    10.810   -1.852343    1.474291    1.469325
   3 B     5.0000    0    10.810   -3.646490   -1.107822    1.119877
   4 B     5.0000    0    10.810   -1.093362   -2.057902    2.062359
   5 B     5.0000    0    10.810    1.853273   -1.474200    1.467742
   6 B     5.0000    0    10.810    3.639388   -1.130573   -1.120008
   7 B     5.0000    0    10.810    1.861187    1.462558   -1.468368
   8 B     5.0000    0    10.810   -1.082186    2.063982   -2.062260
   9 B     5.0000    0    10.810   -3.640383    1.130702   -1.117674
  10 B     5.0000    0    10.810   -1.862011   -1.462814   -1.467146
  11 B     5.0000    0    10.810    1.080725   -2.064451   -2.062678

--------------------------------
INTERNAL COORDINATES (ANGSTROEM)
--------------------------------
 B      0   0   0     0.000000000000     0.00000000     0.00000000
 B      1   0   0     1.525326606391     0.00000000     0.00000000
 B      2   1   0     1.620394111453   136.57297949     0.00000000
 B      3   2   1     1.674106581117   136.28569323    46.35798099
 B      4   3   2     1.525406353650    74.37107996     8.58634795
 B      5   4   3     1.620434862873   136.54953572   316.98706381
 B      6   5   4     1.673801347423   136.29867444   313.65337838
 B      1   2   3     1.673784736432    74.36550411    42.96467243
 B      8   1   2     1.620515123858   136.33366522   351.44384016
 B      9   8   1     1.525244570834   136.54628346   313.70744530
 B      4   3   2     1.673662143470    82.06689242   292.67012560
 B      7   6   5     1.525234633473    74.40057509   351.45968056

---------------------------
INTERNAL COORDINATES (A.U.)
---------------------------
 B      0   0   0     0.000000000000     0.00000000     0.00000000
 B      1   0   0     2.882449550862     0.00000000     0.00000000
 B      2   1   0     3.062101099666   136.57297949     0.00000000
 B      3   2   1     3.163602957306   136.28569323    46.35798099
 B      4   3   2     2.882600251342    74.37107996     8.58634795
 B      5   4   3     3.062178108688   136.54953572   316.98706381
 B      6   5   4     3.163026149218   136.29867444   313.65337838
 B      1   2   3     3.162994758993    74.36550411    42.96467243
 B      8   1   2     3.062329779968   136.33366522   351.44384016
 B      9   8   1     2.882294526127   136.54628346   313.70744530
 B      4   3   2     3.162763091870    82.06689242   292.67012560
 B      7   6   5     2.882275747236    74.40057509   351.45968056

---------------------
BASIS SET INFORMATION
---------------------
There are 1 groups of distinct atoms

 Group   1 Type B   : 11s6p1d contracted to 5s3p1d pattern {62111/411/1}

Atom   0B    basis set group =>   1
Atom   1B    basis set group =>   1
Atom   2B    basis set group =>   1
Atom   3B    basis set group =>   1
Atom   4B    basis set group =>   1
Atom   5B    basis set group =>   1
Atom   6B    basis set group =>   1
Atom   7B    basis set group =>   1
Atom   8B    basis set group =>   1
Atom   9B    basis set group =>   1
Atom  10B    basis set group =>   1
Atom  11B    basis set group =>   1
---------------------------------
AUXILIARY/J BASIS SET INFORMATION
---------------------------------
There are 1 groups of distinct atoms

 Group   1 Type B   : 8s3p3d contracted to 6s3p3d pattern {311111/111/111}

Atom   0B    basis set group =>   1
Atom   1B    basis set group =>   1
Atom   2B    basis set group =>   1
Atom   3B    basis set group =>   1
Atom   4B    basis set group =>   1
Atom   5B    basis set group =>   1
Atom   6B    basis set group =>   1
Atom   7B    basis set group =>   1
Atom   8B    basis set group =>   1
Atom   9B    basis set group =>   1
Atom  10B    basis set group =>   1
Atom  11B    basis set group =>   1


           ************************************************************
           *        Program running with 8 parallel MPI-processes     *
           *              working on a common directory               *
           ************************************************************
------------------------------------------------------------------------------
                             ORCA STARTUP CALCULATIONS
                           -- RI-GTO INTEGRALS CHOSEN --
------------------------------------------------------------------------------
------------------------------------------------------------------------------
                   ___                                                        
                  /   \      - P O W E R E D   B Y -                         
                 /     \                                                     
                 |  |  |   _    _      __       _____    __    __             
                 |  |  |  | |  | |    /  \     |  _  \  |  |  /  |          
                  \  \/   | |  | |   /    \    | | | |  |  | /  /          
                 / \  \   | |__| |  /  /\  \   | |_| |  |  |/  /          
                |  |  |   |  __  | /  /__\  \  |    /   |      \           
                |  |  |   | |  | | |   __   |  |    \   |  |\   \          
                \     /   | |  | | |  |  |  |  | |\  \  |  | \   \       
                 \___/    |_|  |_| |__|  |__|  |_| \__\ |__|  \__/        
                                                                              
                      - O R C A' S   B I G   F R I E N D -                    
                                      &                                       
                       - I N T E G R A L  F E E D E R -                       
                                                                              
 v1 FN, 2020, v2 2021, v3 2022-2024                                           
------------------------------------------------------------------------------


----------------------
SHARK INTEGRAL PACKAGE
----------------------

Number of atoms                             ...     12
Number of basis functions                   ...    228
Number of shells                            ...    108
Maximum angular momentum                    ...      2
Integral batch strategy                     ... SHARK/LIBINT Hybrid
RI-J (if used) integral strategy            ... SPLIT-RIJ (Revised 2003 algorithm where possible)
Printlevel                                  ...      1
Contraction scheme used                     ... SEGMENTED contraction
Prescreening option                         ... SCHWARTZ
   Thresh                                   ... 2.500e-11
   Tcut                                     ... 2.500e-12
   Tpresel                                  ... 2.500e-12 
Coulomb Range Separation                    ... NOT USED
Exchange Range Separation                   ... NOT USED
Multipole approximations                    ... NOT USED
Finite Nucleus Model                        ... NOT USED
CABS basis                                  ... NOT available
Auxiliary Coulomb fitting basis             ... AVAILABLE
   # of basis functions in Aux-J            ...    360
   # of shells in Aux-J                     ...    144
   Maximum angular momentum in Aux-J        ...      2
Auxiliary J/K fitting basis                 ... NOT available
Auxiliary Correlation fitting basis         ... NOT available
Auxiliary 'external' fitting basis          ... NOT available

Checking pre-screening integrals            ... done (  0.0 sec) Dimension = 108
   => SHARK Basis and OBASIS are compatible. Storing Pre-screening
Shell pair information
Shell pair cut-off parameter TPreSel        ...   2.5e-12
Total number of shell pairs                 ...      5886
Shell pairs after pre-screening             ...      5702
Total number of primitive shell pairs       ...     23700
Primitive shell pairs kept                  ...     16978
          la=0 lb=0:   1662 shell pairs
          la=1 lb=0:   2152 shell pairs
          la=1 lb=1:    666 shell pairs
          la=2 lb=0:    712 shell pairs
          la=2 lb=1:    432 shell pairs
          la=2 lb=2:     78 shell pairs

Checking whether 4 symmetric matrices of dimension 228 fit in memory
:Max Core in MB      =   1500.00
 MB in use           =      7.44
 MB left             =   1492.56
 MB needed           =      0.80
 Data fit in memory  = YES
Calculating RI/J V-Matrix + Cholesky decomp.... done (  0.0 sec)
Calculating Nuclear repulsion               ... done (  0.0 sec) ENN=    381.736515089148 Eh

Diagonalization of the overlap matrix:
Smallest eigenvalue                        ... 3.052e-06
Time for diagonalization                   ...    0.002 sec
Threshold for overlap eigenvalues          ... 1.000e-07
Number of eigenvalues below threshold      ... 0
Time for construction of square roots      ...    0.003 sec
Total time needed                          ...    0.006 sec

-------------------
DFT GRID GENERATION
-------------------

General Integration Accuracy     IntAcc      ... 4.388
Radial Grid Type                 RadialGrid  ... OptM3 with GC (2021)
Angular Grid (max. ang.)         AngularGrid ... 4 (Lebedev-302)
Angular grid pruning method      GridPruning ... 4 (adaptive)
Weight generation scheme         WeightScheme... mBecke (2022)
Basis function cutoff            BFCut       ... 1.0000e-11
Integration weight cutoff        WCut        ... 1.0000e-14
Partially contracted basis set               ... off
Rotationally invariant grid construction     ... off
Angular grids for H and He will be reduced by one unit

Total number of grid points                  ...    69970
Total number of batches                      ...     1100
Average number of points per batch           ...       63
Average number of grid points per atom       ...     5831
Grids setup in   0.3 sec
Initializing property integral containers    ... done (  0.0 sec)

SHARK setup successfully completed in   0.5 seconds

Maximum memory used throughout the entire STARTUP-calculation: 20.5 MB


           ************************************************************
           *        Program running with 8 parallel MPI-processes     *
           *              working on a common directory               *
           ************************************************************
-------------------------------------------------------------------------------
                                 ORCA GUESS
                   Start orbitals & Density for SCF / CASSCF
-------------------------------------------------------------------------------

------------
SCF SETTINGS
------------
Hamiltonian:
 Density Functional     Method          .... DFT(GTOs)
  Functional kind                       .... Exchange
  Functional name                       .... Re-regularized SCAN exchange by Furness et al
  Functional family                     .... MGGA
  Functional refs                              
    [ 0] J. W. Furness, A. D. Kaplan, J. Ning, J. P. Perdew, and J. Sun.,  J. Phys. Chem. Lett. 11, 8208-8215 (2020), doi: 10.1021/acs.jpclett.0c02405
    [ 1] J. W. Furness, A. D. Kaplan, J. Ning, J. P. Perdew, and J. Sun.,  J. Phys. Chem. Lett. 11, 9248-9248 (2020), doi: 10.1021/acs.jpclett.0c03077
  Functional external parameters        .... 6
    Parameter  0 _c1        =  6.670000e-01 : c1 parameter        
    Parameter  1 _c2        =  8.000000e-01 : c2 parameter        
    Parameter  2 _d         =  1.240000e+00 : d parameter         
    Parameter  3 _k1        =  6.500000e-02 : k1 parameter        
    Parameter  4 _eta       =  1.000000e-03 : eta parameter       
    Parameter  5 _dp2       =  3.610000e-01 : dp2 parameter       
  Functional kind                       .... Correlation
  Functional name                       .... Re-regularized SCAN correlation by Furness et al
  Functional family                     .... MGGA
  Functional refs                              
    [ 0] J. W. Furness, A. D. Kaplan, J. Ning, J. P. Perdew, and J. Sun.,  J. Phys. Chem. Lett. 11, 8208-8215 (2020), doi: 10.1021/acs.jpclett.0c02405
    [ 1] J. W. Furness, A. D. Kaplan, J. Ning, J. P. Perdew, and J. Sun.,  J. Phys. Chem. Lett. 11, 9248-9248 (2020), doi: 10.1021/acs.jpclett.0c03077
  Functional external parameters        .... 1
    Parameter  0 _eta       =  1.000000e-03 : Regularization parameter
 Gradients option       PostSCFGGA      .... off
 RI-approximation to the Coulomb term is turned on
   Number of AuxJ basis functions       .... 360


General Settings:
 Integral files         IntName         .... b12_hexagonal_prism_m1_spinfreq
 Hartree-Fock type      HFTyp           .... RHF
 Total Charge           Charge          ....    0
 Multiplicity           Mult            ....    1
 Number of Electrons    NEL             ....   60
 Basis Dimension        Dim             ....  228
 Nuclear Repulsion      ENuc            ....    381.7365150891 Eh

Convergence Acceleration:
 AO-DIIS                CNVDIIS         .... on
   Start iteration      DIISMaxIt       ....    12
   Startup error        DIISStart       ....  0.200000
   # of expansion vecs  DIISMaxEq       ....     5
   Bias factor          DIISBfac        ....   1.050
   Max. coefficient     DIISMaxC        ....  10.000
 MO-DIIS                CNVKDIIS        .... off
 Trust-Rad. Augm. Hess. CNVTRAH         .... auto
   Auto Start mean grad. ratio tolernc. ....  1.125000
   Auto Start start iteration           ....    50
   Auto Start num. interpolation iter.  ....    10
   Max. Number of Micro iterations      ....    24
   Max. Number of Macro iterations      .... Maxiter - #DIIS iter
   Number of Davidson start vectors     ....     2
   Converg. threshold    (grad. norm)   ....   1.000e-05
   Grad. Scal. Fac. for Micro threshold ....   0.100
   Minimum threshold for Micro iter.    ....   1.000e-02
   NR start threshold (gradient norm)   ....   1.000e-04
   Initial trust radius                 ....   0.400
   Minimum AH scaling param. (alpha)    ....   1.000
   Maximum AH scaling param. (alpha)    .... 1000.000
   Quad. conv. algorithm                .... NR
   White noise on init. David. guess    .... on
   Maximum white noise                  ....   0.010
   Pseudo random numbers                .... off
   Inactive MOs                         .... canonical
   Orbital update algorithm             .... Taylor
   Preconditioner                       .... Diag
   Full preconditioner red. dimension   ....   250
   COSX micro iterations for RIJONX calc.... off
 SOSCF                 CNVSOSCF           .... on
   Start iteration     SOSCFMaxIt         ....   150
   Startup grad/error  SOSCFStart         ....  0.003300
   Hessian update      SOSCFHessUp        .... L-BFGS
   Autom. constraints  SOSCFAutoConstrain .... off
 Level Shifting         CNVShift        .... on
   Level shift para.    LevelShift      ....    0.2500
   Turn off err/grad.   ShiftErr        ....    0.0010
 Zerner damping         CNVZerner       .... off
 Static damping         CNVDamp         .... on
   Fraction old density DampFac         ....    0.7000
   Max. Damping (<1)    DampMax         ....    0.9800
   Min. Damping (>=0)   DampMin         ....    0.0000
   Turn off err/grad.   DampErr         ....    0.1000

SCF Procedure:
 Maximum # iterations   MaxIter         ....   125
 SCF integral mode      SCFMode         .... Direct
   Integral package                     .... SHARK and LIBINT hybrid scheme
 Reset frequency        DirectResetFreq ....    20
 Integral Threshold     Thresh          ....  2.500e-11 Eh
 Primitive CutOff       TCut            ....  2.500e-12 Eh

Convergence Tolerance:
 Convergence Check Mode ConvCheckMode   .... Total+1el-Energy
 Convergence forced     ConvForced      .... 0
 Energy Change          TolE            ....  1.000e-08 Eh
 1-El. energy change                    ....  1.000e-05 Eh
 Orbital Gradient       TolG            ....  1.000e-05
 Orbital Rotation angle TolX            ....  1.000e-05
 DIIS Error             TolErr          ....  5.000e-07

------------------------------
INITIAL GUESS: MODEL POTENTIAL
------------------------------
Loading Hartree-Fock densities                     ... done
Calculating cut-offs                               ... done
Initializing the effective Hamiltonian             ... done
Setting up the integral package (SHARK)            ... done
Starting the Coulomb interaction                   ... done (   0.0 sec)
Making the grid                                    ... done (   0.1 sec)
Mapping shells                                     ... done
Starting the XC term evaluation                    ... done (   0.1 sec)
  promolecular density results
     # of electrons  =     60.010784625
     EX              =    -45.853131335
     EC              =     -1.915085549
     EX+EC           =    -47.768216884
Transforming the Hamiltonian                       ... done (   0.0 sec)
Diagonalizing the Hamiltonian                      ... done (   0.0 sec)
Back transforming the eigenvectors                 ... done (   0.0 sec)
Now organizing SCF variables                       ... done
                      ------------------
                      INITIAL GUESS DONE (   0.2 sec)
                      ------------------
             **** ENERGY FILE WAS UPDATED (b12_hexagonal_prism_m1_spinfreq.en.tmp) ****
Finished Guess after   0.3 sec
Maximum memory used throughout the entire GUESS-calculation: 10.9 MB


           ************************************************************
           *        Program running with 8 parallel MPI-processes     *
           *              working on a common directory               *
           ************************************************************

-------------------------------------------------------------------------------------------
                                      ORCA LEAN-SCF
                              memory conserving SCF solver
-------------------------------------------------------------------------------------------

----------------------------------------D-I-I-S--------------------------------------------
Iteration    Energy (Eh)           Delta-E    RMSDP     MaxDP     DIISErr   Damp  Time(sec)
-------------------------------------------------------------------------------------------
               ***  Starting incremental Fock matrix formation  ***
    1    -297.3039158778810247     0.00e+00  2.16e-01  2.36e+00  1.51e-01  0.700   0.5
Warning: op=0 Small HOMO/LUMO gap (   0.039) - skipping pre-diagonalization
         Will do a full diagonalization
    2    -297.5502629280776432    -2.46e-01  1.75e-01  2.01e+00  6.99e-02  0.700   0.5
                               ***Turning on AO-DIIS***
    3    -297.6351091021838897    -8.48e-02  7.97e-02  1.02e+00  2.54e-02  0.700   0.5
    4    -297.6834451801263981    -4.83e-02  1.17e-01  1.61e+00  1.27e-02  0.000   0.5
    5    -297.7963277274854477    -1.13e-01  9.39e-03  1.06e-01  9.59e-03  0.000   0.5
                              *** Initializing SOSCF ***
---------------------------------------S-O-S-C-F--------------------------------------
Iteration    Energy (Eh)           Delta-E    RMSDP     MaxDP     MaxGrad    Time(sec)
--------------------------------------------------------------------------------------
    6    -297.7989600523079048    -2.63e-03  5.06e-03  7.04e-02  2.88e-03     0.5
               *** Restarting incremental Fock matrix formation ***
    7    -297.7992737919418573    -3.14e-04  8.61e-03  1.12e-01  9.49e-04     0.6
    8    -297.7992946028276151    -2.08e-05  4.92e-03  6.02e-02  9.06e-04     0.5
    9    -297.7993248766728698    -3.03e-05  6.70e-04  7.34e-03  2.44e-04     0.5
   10    -297.7993226796306203     2.20e-06  1.53e-03  1.71e-02  3.60e-04     0.4
   11    -297.7993273162914534    -4.64e-06  3.78e-04  4.55e-03  4.44e-05     0.4
   12    -297.7993272989838829     1.73e-08  1.95e-04  2.70e-03  5.09e-05     0.4
   13    -297.7993274561031853    -1.57e-07  1.21e-03  1.50e-02  5.92e-06     0.4
   14    -297.7993274522402203     3.86e-09  1.30e-04  2.06e-03  9.84e-06     0.4
                 **** Energy Check signals convergence ****

               *****************************************************
               *                     SUCCESS                       *
               *           SCF CONVERGED AFTER  14 CYCLES          *
               *****************************************************

             **** ENERGY FILE WAS UPDATED (b12_hexagonal_prism_m1_spinfreq.en.tmp) ****

----------------
TOTAL SCF ENERGY
----------------

Total Energy       :       -297.79932745504647 Eh           -8103.53168 eV

Components:
Nuclear Repulsion  :        381.73651508914753 Eh           10387.57867 eV
Electronic Energy  :       -679.53584254419400 Eh          -18491.11035 eV
One Electron Energy:      -1152.08650578517654 Eh          -31349.86762 eV
Two Electron Energy:        472.55066324098254 Eh           12858.75727 eV

Virial components:
Potential Energy   :       -594.16681036679529 Eh          -16168.10088 eV
Kinetic Energy     :        296.36748291174877 Eh            8064.56920 eV
Virial Ratio       :          2.00483131458698

DFT components:
N(Alpha)           :       29.999940314832 electrons
N(Beta)            :       29.999940314832 electrons
N(Total)           :       59.999880629665 electrons
E(X)               :      -46.827549025962 Eh       
E(C)               :       -1.913644858340 Eh       
E(XC)              :      -48.741193884303 Eh       

---------------
SCF CONVERGENCE
---------------

  Last Energy change         ...   -3.8630e-09  Tolerance :   1.0000e-08
  Last MAX-Density change    ...    2.0628e-03  Tolerance :   1.0000e-07
  Last RMS-Density change    ...    1.2970e-04  Tolerance :   5.0000e-09
  Last DIIS Error            ...    2.8759e-03  Tolerance :   5.0000e-07
  Last Orbital Gradient      ...    9.8366e-06  Tolerance :   1.0000e-05
  Last Orbital Rotation      ...    1.4131e-05  Tolerance :   1.0000e-05


----------------
ORBITAL ENERGIES
----------------

  NO   OCC          E(Eh)            E(eV) 
   0   2.0000      -6.678770      -181.7386 
   1   2.0000      -6.678755      -181.7382 
   2   2.0000      -6.678731      -181.7375 
   3   2.0000      -6.678727      -181.7374 
   4   2.0000      -6.662210      -181.2879 
   5   2.0000      -6.662194      -181.2875 
   6   2.0000      -6.662167      -181.2868 
   7   2.0000      -6.662162      -181.2867 
   8   2.0000      -6.660655      -181.2456 
   9   2.0000      -6.660648      -181.2455 
  10   2.0000      -6.660311      -181.2363 
  11   2.0000      -6.660307      -181.2362 
  12   2.0000      -0.791319       -21.5329 
  13   2.0000      -0.717294       -19.5186 
  14   2.0000      -0.573239       -15.5986 
  15   2.0000      -0.573175       -15.5969 
  16   2.0000      -0.530439       -14.4340 
  17   2.0000      -0.456712       -12.4278 
  18   2.0000      -0.456683       -12.4270 
  19   2.0000      -0.375175       -10.2090 
  20   2.0000      -0.358510        -9.7556 
  21   2.0000      -0.345421        -9.3994 
  22   2.0000      -0.344644        -9.3782 
  23   2.0000      -0.338172        -9.2021 
  24   2.0000      -0.338135        -9.2011 
  25   2.0000      -0.314953        -8.5703 
  26   2.0000      -0.289636        -7.8814 
  27   2.0000      -0.243880        -6.6363 
  28   2.0000      -0.216610        -5.8943 
  29   2.0000      -0.216585        -5.8936 
  30   0.0000      -0.168195        -4.5768 
  31   0.0000      -0.108294        -2.9468 
  32   0.0000      -0.108241        -2.9454 
  33   0.0000      -0.075093        -2.0434 
  34   0.0000      -0.057717        -1.5705 
  35   0.0000      -0.057585        -1.5670 
  36   0.0000      -0.057330        -1.5600 
  37   0.0000      -0.017142        -0.4665 
  38   0.0000      -0.017114        -0.4657 
  39   0.0000      -0.011161        -0.3037 
  40   0.0000       0.001516         0.0413 
*Only the first 10 virtual orbitals were printed.

                    ********************************
                    * MULLIKEN POPULATION ANALYSIS *
                    ********************************

-----------------------
MULLIKEN ATOMIC CHARGES
-----------------------
   0 B :    0.178815
   1 B :   -0.637595
   2 B :    0.458482
   3 B :    0.179786
   4 B :   -0.637825
   5 B :    0.458726
   6 B :    0.178050
   7 B :    0.459067
   8 B :   -0.637659
   9 B :    0.178694
  10 B :    0.458984
  11 B :   -0.637524
Sum of atomic charges:    0.0000000

--------------------------------
MULLIKEN REDUCED ORBITAL CHARGES
--------------------------------
  0 B s       :     2.469110  s :     2.469110
      pz      :     0.736630  p :     2.311589
      px      :     0.838212
      py      :     0.736747
      dz2     :     0.008700  d :     0.040486
      dxz     :     0.008990
      dyz     :     0.004405
      dx2y2   :     0.009411
      dxy     :     0.008980

  1 B s       :     3.636178  s :     3.636178
      pz      :     0.533023  p :     1.968490
      px      :     0.902374
      py      :     0.533093
      dz2     :     0.007880  d :     0.032927
      dxz     :     0.006740
      dyz     :     0.003218
      dx2y2   :     0.008355
      dxy     :     0.006733

  2 B s       :     2.384906  s :     2.384906
      pz      :     0.650208  p :     2.115056
      px      :     0.815368
      py      :     0.649480
      dz2     :     0.009941  d :     0.041557
      dxz     :     0.006907
      dyz     :     0.008021
      dx2y2   :     0.009801
      dxy     :     0.006887

  3 B s       :     2.468211  s :     2.468211
      pz      :     0.736677  p :     2.311514
      px      :     0.838025
      py      :     0.736811
      dz2     :     0.008704  d :     0.040489
      dxz     :     0.008991
      dyz     :     0.004408
      dx2y2   :     0.009410
      dxy     :     0.008977

  4 B s       :     3.636759  s :     3.636759
      pz      :     0.532879  p :     1.968142
      px      :     0.902147
      py      :     0.533116
      dz2     :     0.007877  d :     0.032924
      dxz     :     0.006742
      dyz     :     0.003217
      dx2y2   :     0.008354
      dxy     :     0.006734

  5 B s       :     2.384457  s :     2.384457
      pz      :     0.650560  p :     2.115251
      px      :     0.815236
      py      :     0.649454
      dz2     :     0.009942  d :     0.041567
      dxz     :     0.006912
      dyz     :     0.008026
      dx2y2   :     0.009800
      dxy     :     0.006886

  6 B s       :     2.469688  s :     2.469688
      pz      :     0.736640  p :     2.311780
      px      :     0.838840
      py      :     0.736300
      dz2     :     0.008702  d :     0.040482
      dxz     :     0.008967
      dyz     :     0.004432
      dx2y2   :     0.009403
      dxy     :     0.008979

  7 B s       :     2.383891  s :     2.383891
      pz      :     0.650221  p :     2.115463
      px      :     0.813546
      py      :     0.651696
      dz2     :     0.009946  d :     0.041579
      dxz     :     0.006893
      dyz     :     0.008047
      dx2y2   :     0.009776
      dxy     :     0.006918

  8 B s       :     3.636286  s :     3.636286
      pz      :     0.532864  p :     1.968452
      px      :     0.902687
      py      :     0.532902
      dz2     :     0.007880  d :     0.032920
      dxz     :     0.006750
      dyz     :     0.003204
      dx2y2   :     0.008323
      dxy     :     0.006764

  9 B s       :     2.469602  s :     2.469602
      pz      :     0.736612  p :     2.311230
      px      :     0.838397
      py      :     0.736221
      dz2     :     0.008697  d :     0.040474
      dxz     :     0.008965
      dyz     :     0.004428
      dx2y2   :     0.009403
      dxy     :     0.008981

 10 B s       :     2.383886  s :     2.383886
      pz      :     0.650624  p :     2.115556
      px      :     0.813297
      py      :     0.651634
      dz2     :     0.009943  d :     0.041574
      dxz     :     0.006897
      dyz     :     0.008046
      dx2y2   :     0.009773
      dxy     :     0.006916

 11 B s       :     3.635948  s :     3.635948
      pz      :     0.532893  p :     1.968651
      px      :     0.902915
      py      :     0.532842
      dz2     :     0.007877  d :     0.032926
      dxz     :     0.006755
      dyz     :     0.003204
      dx2y2   :     0.008325
      dxy     :     0.006766



                     *******************************
                     * LOEWDIN POPULATION ANALYSIS *
                     *******************************

----------------------
LOEWDIN ATOMIC CHARGES
----------------------
   0 B :   -0.059631
   1 B :    0.049794
   2 B :    0.010000
   3 B :   -0.059771
   4 B :    0.049844
   5 B :    0.009918
   6 B :   -0.059765
   7 B :    0.009739
   8 B :    0.049907
   9 B :   -0.059713
  10 B :    0.009769
  11 B :    0.049907

-------------------------------
LOEWDIN REDUCED ORBITAL CHARGES
-------------------------------
  0 B s       :     2.678243  s :     2.678243
      pz      :     0.826754  p :     2.303180
      px      :     0.649437
      py      :     0.826989
      dz2     :     0.016791  d :     0.078208
      dxz     :     0.017431
      dyz     :     0.008545
      dx2y2   :     0.018009
      dxy     :     0.017433

  1 B s       :     2.748632  s :     2.748632
      pz      :     0.598848  p :     2.136843
      px      :     0.939113
      py      :     0.598881
      dz2     :     0.014776  d :     0.064731
      dxz     :     0.013880
      dyz     :     0.006312
      dx2y2   :     0.015899
      dxy     :     0.013864

  2 B s       :     2.675652  s :     2.675652
      pz      :     0.726961  p :     2.235811
      px      :     0.782521
      py      :     0.726330
      dz2     :     0.018978  d :     0.078536
      dxz     :     0.013411
      dyz     :     0.013794
      dx2y2   :     0.018981
      dxy     :     0.013372

  3 B s       :     2.678199  s :     2.678199
      pz      :     0.826725  p :     2.303358
      px      :     0.649565
      py      :     0.827068
      dz2     :     0.016801  d :     0.078214
      dxz     :     0.017427
      dyz     :     0.008550
      dx2y2   :     0.018007
      dxy     :     0.017429

  4 B s       :     2.748692  s :     2.748692
      pz      :     0.598745  p :     2.136740
      px      :     0.939049
      py      :     0.598946
      dz2     :     0.014766  d :     0.064723
      dxz     :     0.013890
      dyz     :     0.006309
      dx2y2   :     0.015896
      dxy     :     0.013863

  5 B s       :     2.675612  s :     2.675612
      pz      :     0.727288  p :     2.235912
      px      :     0.782356
      py      :     0.726268
      dz2     :     0.018984  d :     0.078558
      dxz     :     0.013422
      dyz     :     0.013805
      dx2y2   :     0.018977
      dxy     :     0.013370

  6 B s       :     2.678197  s :     2.678197
      pz      :     0.826688  p :     2.303362
      px      :     0.650513
      py      :     0.826160
      dz2     :     0.016800  d :     0.078206
      dxz     :     0.017384
      dyz     :     0.008592
      dx2y2   :     0.018057
      dxy     :     0.017373

  7 B s       :     2.675518  s :     2.675518
      pz      :     0.727252  p :     2.236157
      px      :     0.780686
      py      :     0.728220
      dz2     :     0.018991  d :     0.078585
      dxz     :     0.013384
      dyz     :     0.013848
      dx2y2   :     0.018934
      dxy     :     0.013428

  8 B s       :     2.748753  s :     2.748753
      pz      :     0.598611  p :     2.136624
      px      :     0.939278
      py      :     0.598735
      dz2     :     0.014765  d :     0.064716
      dxz     :     0.013911
      dyz     :     0.006284
      dx2y2   :     0.015828
      dxy     :     0.013928

  9 B s       :     2.678268  s :     2.678268
      pz      :     0.826725  p :     2.303254
      px      :     0.650455
      py      :     0.826074
      dz2     :     0.016786  d :     0.078191
      dxz     :     0.017388
      dyz     :     0.008587
      dx2y2   :     0.018058
      dxy     :     0.017372

 10 B s       :     2.675539  s :     2.675539
      pz      :     0.727450  p :     2.236117
      px      :     0.780453
      py      :     0.728215
      dz2     :     0.018985  d :     0.078574
      dxz     :     0.013390
      dyz     :     0.013846
      dx2y2   :     0.018929
      dxy     :     0.013425

 11 B s       :     2.748720  s :     2.748720
      pz      :     0.598667  p :     2.136644
      px      :     0.939291
      py      :     0.598685
      dz2     :     0.014760  d :     0.064728
      dxz     :     0.013920
      dyz     :     0.006283
      dx2y2   :     0.015829
      dxy     :     0.013935



                      *****************************
                      * MAYER POPULATION ANALYSIS *
                      *****************************

  NA   - Mulliken gross atomic population
  ZA   - Total nuclear charge
  QA   - Mulliken gross atomic charge
  VA   - Mayer's total valence
  BVA  - Mayer's bonded valence
  FA   - Mayer's free valence

  ATOM       NA         ZA         QA         VA         BVA        FA
  0 B      4.8212     5.0000     0.1788     3.8746     3.8746     0.0000
  1 B      5.6376     5.0000    -0.6376     4.1765     4.1765     0.0000
  2 B      4.5415     5.0000     0.4585     2.4874     2.4874    -0.0000
  3 B      4.8202     5.0000     0.1798     3.8728     3.8728     0.0000
  4 B      5.6378     5.0000    -0.6378     4.1756     4.1756     0.0000
  5 B      4.5413     5.0000     0.4587     2.4866     2.4866    -0.0000
  6 B      4.8220     5.0000     0.1780     3.8771     3.8771     0.0000
  7 B      4.5409     5.0000     0.4591     2.4845     2.4845    -0.0000
  8 B      5.6377     5.0000    -0.6377     4.1750     4.1750     0.0000
  9 B      4.8213     5.0000     0.1787     3.8753     3.8753     0.0000
 10 B      4.5410     5.0000     0.4590     2.4853     2.4853    -0.0000
 11 B      5.6375     5.0000    -0.6375     4.1752     4.1752     0.0000

  Mayer bond orders larger than 0.100000
B(  0-B ,  1-B ) :   1.7770 B(  0-B ,  2-B ) :  -0.5380 B(  0-B ,  3-B ) :   0.5188 
B(  0-B ,  4-B ) :   0.1575 B(  0-B ,  5-B ) :   0.5481 B(  0-B ,  6-B ) :   0.2993 
B(  0-B ,  7-B ) :   0.5481 B(  0-B ,  8-B ) :   0.1571 B(  0-B ,  9-B ) :   0.5184 
B(  0-B , 10-B ) :  -0.5593 B(  0-B , 11-B ) :   0.4475 B(  1-B ,  2-B ) :   0.5185 
B(  1-B ,  3-B ) :   0.1566 B(  1-B ,  4-B ) :   0.5492 B(  1-B ,  5-B ) :  -0.1691 
B(  1-B ,  6-B ) :   0.4486 B(  1-B ,  7-B ) :  -0.1694 B(  1-B ,  8-B ) :   0.5491 
B(  1-B ,  9-B ) :   0.1571 B(  1-B , 10-B ) :  -0.1112 B(  1-B , 11-B ) :   0.4701 
B(  2-B ,  3-B ) :   0.5486 B(  2-B ,  4-B ) :  -0.1685 B(  2-B ,  5-B ) :   0.8260 
B(  2-B ,  6-B ) :  -0.5594 B(  2-B ,  7-B ) :   0.8263 B(  2-B ,  8-B ) :  -0.1687 
B(  2-B ,  9-B ) :   0.5488 B(  2-B , 10-B ) :   0.7650 B(  2-B , 11-B ) :  -0.1111 
B(  3-B ,  4-B ) :   1.7752 B(  3-B ,  5-B ) :  -0.5378 B(  3-B ,  6-B ) :   0.5190 
B(  3-B ,  7-B ) :  -0.5593 B(  3-B ,  8-B ) :   0.4469 B(  3-B ,  9-B ) :   0.2998 
B(  3-B , 10-B ) :   0.5485 B(  3-B , 11-B ) :   0.1566 B(  4-B ,  5-B ) :   0.5179 
B(  4-B ,  6-B ) :   0.1577 B(  4-B ,  7-B ) :  -0.1115 B(  4-B ,  8-B ) :   0.4705 
B(  4-B ,  9-B ) :   0.4475 B(  4-B , 10-B ) :  -0.1690 B(  4-B , 11-B ) :   0.5492 
B(  5-B ,  6-B ) :   0.5488 B(  5-B ,  7-B ) :   0.7655 B(  5-B ,  8-B ) :  -0.1114 
B(  5-B ,  9-B ) :  -0.5587 B(  5-B , 10-B ) :   0.8263 B(  5-B , 11-B ) :  -0.1689 
B(  6-B ,  7-B ) :   0.5480 B(  6-B ,  8-B ) :   0.1576 B(  6-B ,  9-B ) :   0.5188 
B(  6-B , 10-B ) :  -0.5380 B(  6-B , 11-B ) :   1.7767 B(  7-B ,  8-B ) :   0.5171 
B(  7-B ,  9-B ) :  -0.5375 B(  7-B , 10-B ) :   0.8264 B(  7-B , 11-B ) :  -0.1692 
B(  8-B ,  9-B ) :   1.7760 B(  8-B , 10-B ) :  -0.1689 B(  8-B , 11-B ) :   0.5496 
B(  9-B , 10-B ) :   0.5479 B(  9-B , 11-B ) :   0.1571 B( 10-B , 11-B ) :   0.5176 


-------
TIMINGS
-------

Total SCF time: 0 days 0 hours 0 min 6 sec 

Total time                  ....       6.906 sec
Sum of individual times     ....       6.528 sec  ( 94.5%)

SCF preparation             ....       0.093 sec  (  1.3%)
Fock matrix formation       ....       5.394 sec  ( 78.1%)
  Startup                   ....       0.036 sec  (  0.7% of F)
  Split-RI-J                ....       0.726 sec  ( 13.5% of F)
  XC integration            ....       4.614 sec  ( 85.5% of F)
    Basis function eval.    ....       0.550 sec  ( 11.9% of XC)
    Density eval.           ....       1.477 sec  ( 32.0% of XC)
    XC-Functional eval.     ....       0.168 sec  (  3.6% of XC)
    XC-Potential eval.      ....       1.879 sec  ( 40.7% of XC)
Diagonalization             ....       0.000 sec  (  0.0%)
Density matrix formation    ....       0.243 sec  (  3.5%)
Total Energy calculation    ....       0.127 sec  (  1.8%)
Population analysis         ....       0.044 sec  (  0.6%)
Orbital Transformation      ....       0.041 sec  (  0.6%)
Orbital Orthonormalization  ....       0.000 sec  (  0.0%)
DIIS solution               ....       0.259 sec  (  3.8%)
SOSCF solution              ....       0.327 sec  (  4.7%)
Finished LeanSCF after   7.0 sec

Maximum memory used throughout the entire LEANSCF-calculation: 13.1 MB


           ************************************************************
           *        Program running with 8 parallel MPI-processes     *
           *              working on a common directory               *
           ************************************************************

------------------------------------------------------------------------------
                         ORCA PROPERTY INTEGRAL CALCULATIONS
------------------------------------------------------------------------------

GBWName                                   ... b12_hexagonal_prism_m1_spinfreq.gbw
Number of atoms                           ...     12
Number of basis functions                 ...    228
Max core memory                           ...   1500 MB

Dipole integrals                          ... YES
Quadrupole integrals                      ...  NO
Linear momentum integrals                 ...  NO
Angular momentum integrals                ...  NO
Higher moments length integrals           ...  NO
Higher moments velocity integrals         ...  NO
Kinetic energy integrals                  ...  NO
GIAO right hand sides                     ...  NO
GIAO dipole derivative integrals          ...  NO
SOC integrals                             ...  NO
EPR diamagnetic integrals (GIAO)          ...  NO
EPR gauge integrals                       ...  NO
Field gradient integrals                  ...  NO (   0 nuclei)
Spin-dipole/Fermi contact integrals       ...  NO (   0 nuclei)
Contact density integrals                 ...  NO (   0 nuclei)
Nucleus-orbit integrals                   ...  NO (   0 nuclei)
Geometric perturbations                   ... YES (  12 nuclei)

Choice of electric origin   ... Center of mass
Position of electric origin ... ( -0.0000, -0.0000, -0.0000) 
Choice of magnetic origin   ... GIAO
Position of magnetic origin ... (  0.0000,  0.0000,  0.0000) 

Calculating integrals                     ... Electric Dipole (Length)     done (  0.0 sec)
Calculating integrals                     ... Geometrical perturbation right hand sides

-----------------------
GEOMETRIC PERTURBATIONS (12 nuclei)
-----------------------

MaxCore                            ...   1500 MB
Number of batches                  ...      1

BATCH   0: Atoms    0 -   11 ( 36 perturbations)
   => H(core) and overlap derivative integrals     ... done (     0.1 sec)
   => Making and storing internal U-coefficients   ... done (     0.1 sec)
   => RI-J derivative integrals                    ... done (     0.5 sec)
   => RI-J response operators                      ... done (     0.2 sec)
   => XC derivative integrals                      ... done (    32.2 sec)
   => XC response operators                        ... done (     9.4 sec)
   => Completing and storing right hand sides      ... done (     0.0 sec)
   => Total time for right hand sides =  42.9 sec

  geometrical perturbations done ( 42.9 sec)

Property integrals calculated in  43.0 sec

Maximum memory used throughout the entire PROPINT-calculation: 81.5 MB


-------------------------------------------------------------------------------
                          DFT DISPERSION CORRECTION                            
                                                                               
                                DFTD4 V3.4.0                                   
-------------------------------------------------------------------------------
The R2SCAN3C composite method is recognized
Using three-body term ABC
Active option DFTDOPT                   ...         5   

-------------------------   ----------------
Dispersion correction           -0.005923096
-------------------------   ----------------

------------------   -----------------
gCP correction             0.010841717
------------------   -----------------

-------------------------   --------------------
FINAL SINGLE POINT ENERGY      -297.794408834715
-------------------------   --------------------



           ************************************************************
           *        Program running with 8 parallel MPI-processes     *
           *              working on a common directory               *
           ************************************************************
------------------------------------------------------------------------------
                            ORCA SCF RESPONSE CALCULATION
------------------------------------------------------------------------------

GBWName                                 ... b12_hexagonal_prism_m1_spinfreq.gbw
Number of atoms                         ...     12
Number of basis functions               ...    228
Max core memory                         ...   1500 MB

Electric field perturbation             ...  NO
Quadrupolar field perturbation          ...  NO
Magnetic field perturbation (no GIAO)   ...  NO
Magnetic field perturbation (with GIAO) ...  NO
Linear momentum (velocity) perturbation ...  NO
Spin-orbit coupling perturbation        ...  NO
Choice of electric origin               ... Center of mass
Position of electric origin             ...    -0.000000    -0.000000    -0.000000
Choice of magnetic origin               ... GIAO
Position of magnetic origin             ...     0.000000     0.000000     0.000000
Nuclear geometric perturbations         ... YES (  36 perturbations)
Nucleus-orbit perturbations             ...  NO (   0 perturbations)
Spin-dipole/Fermi contact perturbations ...  NO (   0 perturbations)

Total number of real perturbations      ...     36
Total number of imaginary perturbations ...      0
Total number of triplet perturbations   ...      0
Total number of SOC perturbations       ...      0

Using XC Grid                  ... (b12_hexagonal_prism_m1_spinfreq.grid_cpscf.tmp) 
Recalculating density on grid  ... (b12_hexagonal_prism_m1_spinfreq.grho_cpscf0.tmp) done
Calculating the xc-kernel      ... (b12_hexagonal_prism_m1_spinfreq.fxc_cpscf0.tmp) done

                                **********************
                                * REAL PERTURBATIONS *
                                **********************



-------------------
SHARK CP-SCF DRIVER
-------------------

Dimension of the orbital basis          ...    228
Dimension of the CPSCF-problem          ...   5940
Number of operators                     ...      1
Max. number of iterations               ...    128
Convergence Tolerance                   ... 1.0e-04
Number of perturbations                 ...     36
Perturbation type                       ... REAL

----------------------------
POPLE LINEAR EQUATION SOLVER
----------------------------

  ITERATION   0:   ||err||_max =   1.0579e+00 (   2.9 sec   0/ 36 done)
  ITERATION   1:   ||err||_max =   1.4742e-01 (   3.3 sec   0/ 36 done)
  ITERATION   2:   ||err||_max =   5.1610e-02 (   3.2 sec   0/ 36 done)
  ITERATION   3:   ||err||_max =   2.2205e-02 (   3.4 sec   0/ 36 done)
  ITERATION   4:   ||err||_max =   6.4665e-03 (   3.0 sec   0/ 36 done)
  ITERATION   5:   ||err||_max =   3.1059e-03 (   3.2 sec   0/ 36 done)
  ITERATION   6:   ||err||_max =   1.1103e-03 (   3.2 sec   0/ 36 done)
  ITERATION   7:   ||err||_max =   4.1470e-04 (   3.2 sec   0/ 36 done)
  ITERATION   8:   ||err||_max =   1.4900e-04 (   3.3 sec  28/ 36 done)
  ITERATION   9:   ||err||_max =   3.6482e-05 (   1.4 sec  36/ 36 done)

CP-SCF equations solved in  34.1 sec
Response densities calculated in   0.0 sec

Maximum memory used throughout the entire SCFRESP-calculation: 52.5 MB


           ************************************************************
           *        Program running with 8 parallel MPI-processes     *
           *              working on a common directory               *
           ************************************************************

------------------------------------------------------------------------------
                              ORCA PROPERTY CALCULATIONS
------------------------------------------------------------------------------

GBWName                                 ... b12_hexagonal_prism_m1_spinfreq.gbw
Number of atoms                         ...     12
Number of basis functions               ...    228
Max core memory                         ...   1500 MB

Electric properties:
Dipole moment                           ... YES
Quadrupole moment                       ...  NO
Static polarizability (Dipole/Dipole)   ...  NO
Static polarizability (Dipole/Quad.)    ...  NO
Static polarizability (Quad./Quad.)     ...  NO
Static polarizability (Velocity)        ...  NO
Static hyperpolarizability              ...  NO

Atomic electric properties:
Dipole moment                           ...  NO
Quadrupole moment                       ...  NO
Static polarizability                   ...  NO

Choice of electric origin               ... Center of mass
Position of electric origin             ...    -0.000000    -0.000000    -0.000000

General magnetic properties:
Magnetizability                         ...  NO

EPR properties:
g-Tensor (aka g-matrix)                 ...  NO
Zero-Field splitting spin-orbit         ...  NO
Zero-field splitting spin-spin          ...  NO
Hyperfine couplings                     ...  NO (   0 nuclei)
Quadrupole couplings                    ...  NO (   0 nuclei)
Contact density                         ...  NO (   0 nuclei)

NMR properties:
Chemical shifts                         ...  NO (   0 nuclei)
Spin-rotation constants                 ...  NO (   0 nuclei)
Spin-spin couplings                     ...  NO (   0 nuclei,    0 pairs)

Choice of magnetic origin               ... GIAO
Position of magnetic origin             ...     0.000000     0.000000     0.000000

Properties with geometric perturbations:
SCF Hessian                             ... YES
IR spectrum                             ... YES
VCD spectrum                            ...  NO
X-ray spectroscopy properties:
SCF XES/XAS/RIXS spectra                ...  NO

SCF SOC stabilization energy            ...  NO
Diagonal Born-Oppenheimer correction    ...  NO

-------------
DIPOLE MOMENT
-------------

Method             : SCF
Type of density    : Electron Density
Multiplicity       :   1
Irrep              :   0
Energy             :  -297.7993274550464662 Eh
Basis              : AO
                                X                 Y                 Z
Electronic contribution:      0.000073862       0.000161694      -0.000012238
Nuclear contribution   :     -0.000000000      -0.000000000      -0.000000000
                        -----------------------------------------
Total Dipole Moment    :      0.000073862       0.000161694      -0.000012238
                        -----------------------------------------
Magnitude (a.u.)       :      0.000178186
Magnitude (Debye)      :      0.000452913



--------------------
Rotational spectrum 
--------------------
 
Rotational constants in cm-1:             0.090894             0.054459             0.054455 
Rotational constants in MHz :          2724.941171          1632.639433          1632.510324 

Dipole components along the rotational axes: 
x,y,z [a.u.] :    -0.000073     0.000011     0.000162 
x,y,z [Debye]:    -0.000186     0.000027     0.000412 

 

Dipole moment calculation done in   0.0 sec 

-----------
SCF HESSIAN
-----------

Occupied/Occupied contributions to the Hessian:
   => Occupied/Occupied contributions              ... done (  0.0 sec)
Perturbed density contributions to the Hessian:
   => Perturbed density contributions              ... done (  0.0 sec)
Explicit contributions to the Hessian:
   => Nuclear repulsion Hessian                    ... done (  0.0 sec)
   => HCore and overlap Hessian                    ... done (  0.7 sec)
   => RI-J Hessian                                 ... done (  1.1 sec)
   => XC-Hessian                                   ... done (  8.4 sec)
   => Van der Waals-Hessian                        ... done (  0.4 sec)
   => GCP-Hessian                                  ... done (  0.2 sec)
   => Explicit contributions done
Dipole derivatives                                 ... done (  0.0 sec)
Mass weighting the Hessian           ... done
Calculating normal modes             ... done
Scaling frequencies                  ... done

-----------------------
VIBRATIONAL FREQUENCIES
-----------------------

Scaling factor for frequencies =  1.000000000  (already applied!)

     0:       0.00 cm**-1
     1:       0.00 cm**-1
     2:       0.00 cm**-1
     3:       0.00 cm**-1
     4:       0.00 cm**-1
     5:       0.00 cm**-1
     6:     313.78 cm**-1
     7:     313.87 cm**-1
     8:     336.43 cm**-1
     9:     352.18 cm**-1
    10:     407.01 cm**-1
    11:     407.39 cm**-1
    12:     407.51 cm**-1
    13:     410.73 cm**-1
    14:     417.65 cm**-1
    15:     510.97 cm**-1
    16:     511.14 cm**-1
    17:     526.79 cm**-1
    18:     618.02 cm**-1
    19:     638.42 cm**-1
    20:     642.60 cm**-1
    21:     676.39 cm**-1
    22:     676.65 cm**-1
    23:     690.31 cm**-1
    24:     781.56 cm**-1
    25:     781.86 cm**-1
    26:     782.79 cm**-1
    27:     879.04 cm**-1
    28:    1073.29 cm**-1
    29:    1073.45 cm**-1
    30:    1089.07 cm**-1
    31:    1110.68 cm**-1
    32:    1284.10 cm**-1
    33:    1284.31 cm**-1
    34:    1320.45 cm**-1
    35:    1325.87 cm**-1


------------
NORMAL MODES
------------

These modes are the Cartesian displacements weighted by the diagonal matrix
M(i,i)=1/sqrt(m[i]) where m[i] is the mass of the displaced atom
Thus, these vectors are normalized but *not* orthogonal

                  0          1          2          3          4          5    
      0       0.000000   0.000000   0.000000   0.000000   0.000000   0.000000
      1       0.000000   0.000000   0.000000   0.000000   0.000000   0.000000
      2       0.000000   0.000000   0.000000   0.000000   0.000000   0.000000
      3       0.000000   0.000000   0.000000   0.000000   0.000000   0.000000
      4       0.000000   0.000000   0.000000   0.000000   0.000000   0.000000
      5       0.000000   0.000000   0.000000   0.000000   0.000000   0.000000
      6       0.000000   0.000000   0.000000   0.000000   0.000000   0.000000
      7       0.000000   0.000000   0.000000   0.000000   0.000000   0.000000
      8       0.000000   0.000000   0.000000   0.000000   0.000000   0.000000
      9       0.000000   0.000000   0.000000   0.000000   0.000000   0.000000
     10       0.000000   0.000000   0.000000   0.000000   0.000000   0.000000
     11       0.000000   0.000000   0.000000   0.000000   0.000000   0.000000
     12       0.000000   0.000000   0.000000   0.000000   0.000000   0.000000
     13       0.000000   0.000000   0.000000   0.000000   0.000000   0.000000
     14       0.000000   0.000000   0.000000   0.000000   0.000000   0.000000
     15       0.000000   0.000000   0.000000   0.000000   0.000000   0.000000
     16       0.000000   0.000000   0.000000   0.000000   0.000000   0.000000
     17       0.000000   0.000000   0.000000   0.000000   0.000000   0.000000
     18       0.000000   0.000000   0.000000   0.000000   0.000000   0.000000
     19       0.000000   0.000000   0.000000   0.000000   0.000000   0.000000
     20       0.000000   0.000000   0.000000   0.000000   0.000000   0.000000
     21       0.000000   0.000000   0.000000   0.000000   0.000000   0.000000
     22       0.000000   0.000000   0.000000   0.000000   0.000000   0.000000
     23       0.000000   0.000000   0.000000   0.000000   0.000000   0.000000
     24       0.000000   0.000000   0.000000   0.000000   0.000000   0.000000
     25       0.000000   0.000000   0.000000   0.000000   0.000000   0.000000
     26       0.000000   0.000000   0.000000   0.000000   0.000000   0.000000
     27       0.000000   0.000000   0.000000   0.000000   0.000000   0.000000
     28       0.000000   0.000000   0.000000   0.000000   0.000000   0.000000
     29       0.000000   0.000000   0.000000   0.000000   0.000000   0.000000
     30       0.000000   0.000000   0.000000   0.000000   0.000000   0.000000
     31       0.000000   0.000000   0.000000   0.000000   0.000000   0.000000
     32       0.000000   0.000000   0.000000   0.000000   0.000000   0.000000
     33       0.000000   0.000000   0.000000   0.000000   0.000000   0.000000
     34       0.000000   0.000000   0.000000   0.000000   0.000000   0.000000
     35       0.000000   0.000000   0.000000   0.000000   0.000000   0.000000
                  6          7          8          9         10         11    
      0      -0.044727   0.059888   0.008809   0.000068  -0.166915   0.174654
      1       0.035609   0.112728  -0.033541   0.039398   0.117431   0.127390
      2      -0.118137  -0.003746  -0.033256  -0.039260  -0.068838  -0.177945
      3      -0.100191   0.130546   0.235879   0.000357  -0.155502   0.161079
      4      -0.419628  -0.103432   0.206786   0.311779  -0.096586  -0.161526
      5       0.212548   0.375798   0.206077  -0.312578   0.124282   0.131587
      6      -0.131408   0.173740   0.301376  -0.001015  -0.149768   0.154101
      7       0.091402   0.030005  -0.089253  -0.161173  -0.044762  -0.401098
      8      -0.054167  -0.079279  -0.088392   0.161334   0.369450   0.064517
      9       0.059217   0.045489  -0.008837  -0.000090  -0.179696  -0.159756
     10      -0.003812   0.118145   0.033523  -0.039497   0.100363  -0.137695
     11      -0.112767   0.035479  -0.033230  -0.039328   0.047931  -0.183815
     12       0.131859   0.098296  -0.235771  -0.000586  -0.167146  -0.147058
     13       0.376001  -0.213187  -0.206760  -0.311723  -0.079553   0.170525
     14       0.102772  -0.419391   0.206186  -0.312310  -0.109882   0.143276
     15       0.173499   0.131894  -0.301518   0.001213  -0.160935  -0.140628
     16      -0.079837   0.053669   0.089236   0.161118  -0.007462   0.402078
     17      -0.030740   0.091026  -0.088351   0.161352  -0.355854   0.094665
     18       0.045267  -0.058948   0.009070   0.000056   0.167734  -0.173919
     19       0.035640   0.113181   0.033583  -0.039525   0.119777  -0.010472
     20      -0.118494  -0.003719   0.033232   0.039332  -0.072394  -0.038686
     21      -0.173804  -0.131804  -0.302167   0.000191   0.160233   0.142318
     22      -0.078568   0.054330  -0.087562  -0.161232   0.001179   0.273077
     23      -0.030134   0.091398   0.088491  -0.161344  -0.345939  -0.033143
     24      -0.129494  -0.099799  -0.234689   0.001319   0.166740   0.147396
     25       0.376532  -0.212567   0.208369   0.311832  -0.110376   0.085301
     26       0.103204  -0.419750  -0.206208   0.312463  -0.142039   0.059202
     27      -0.059710  -0.044486  -0.009065  -0.000126   0.181465   0.158703
     28      -0.003670   0.118652  -0.033474   0.039435   0.127210   0.000738
     29      -0.112985   0.035640   0.033239   0.039323   0.076026  -0.044255
     30       0.131676  -0.173964   0.302315  -0.000237   0.149151  -0.155658
     31       0.090408   0.031144   0.087629   0.161472  -0.014088  -0.271129
     32      -0.053917  -0.079767   0.088418  -0.161469   0.336018  -0.063876
     33       0.097817  -0.130852   0.234599  -0.001151   0.154638  -0.161232
     34      -0.420077  -0.102668  -0.208537  -0.311885  -0.113132  -0.077189
     35       0.212816   0.376310  -0.206206   0.312485   0.141241   0.048472
                 12         13         14         15         16         17    
      0       0.050806  -0.005694  -0.303364   0.110006   0.175703   0.173879
      1      -0.205654   0.165542  -0.007050  -0.035399   0.019444   0.000404
      2       0.191646  -0.162969  -0.006416   0.034008  -0.021199   0.001562
      3       0.046795  -0.007396  -0.148294  -0.022751  -0.038296  -0.008538
      4       0.094814  -0.243287   0.194998  -0.050860  -0.334234  -0.281001
      5      -0.106162   0.241556   0.195946  -0.278247  -0.194013  -0.281710
      6       0.044386  -0.006632  -0.046491  -0.119439  -0.191268  -0.164998
      7       0.104684   0.206787   0.169344  -0.120563   0.266614   0.133552
      8      -0.202463  -0.192892   0.164195   0.291371   0.009363   0.132525
      9      -0.055654  -0.010475   0.303709  -0.176508   0.108838   0.172999
     10       0.210079   0.162612   0.009343   0.022944   0.032898   0.000787
     11       0.194681   0.160026  -0.004206   0.020970   0.034096  -0.001222
     12      -0.051349  -0.010234   0.148468   0.037441  -0.024163  -0.008430
     13      -0.099349  -0.238781  -0.198734   0.194396  -0.276994  -0.280340
     14      -0.111852  -0.242530   0.192782  -0.336041   0.050851   0.280412
     15      -0.048727  -0.007668   0.046447   0.192751  -0.118441  -0.164603
     16      -0.103453   0.212645  -0.165989  -0.010035   0.292463   0.133943
     17      -0.210551   0.192822   0.167281   0.266652   0.120463  -0.131631
     18      -0.044971   0.009816  -0.305352  -0.109133  -0.175467   0.172351
     19       0.248057  -0.153556   0.009176  -0.033446   0.021598  -0.002355
     20      -0.261925   0.155766   0.005871   0.033039  -0.022076  -0.001394
     21       0.049093   0.007307   0.047476  -0.192234   0.120672  -0.165678
     22       0.310082  -0.212344   0.168690  -0.008582   0.292229  -0.131763
     23       0.209147  -0.227717  -0.165643   0.267037   0.120840   0.133814
     24       0.049299   0.007935   0.150424  -0.037252   0.022397  -0.007447
     25       0.171401   0.228177   0.199645   0.193517  -0.278960   0.280963
     26       0.168069   0.229902  -0.193463  -0.333520   0.051570  -0.280540
     27       0.049460   0.005924   0.305327   0.174485  -0.109614   0.172671
     28      -0.246034  -0.151048  -0.011627   0.020137   0.034284  -0.002673
     29      -0.261267  -0.153681   0.003327   0.019618   0.034559   0.001073
     30      -0.044444   0.007711  -0.047787   0.119644   0.193221  -0.165194
     31      -0.311906  -0.208646  -0.171578  -0.121038   0.266325  -0.131969
     32       0.220896   0.227888  -0.163033   0.292769   0.009568  -0.132577
     33      -0.044692   0.009407  -0.150563   0.022989   0.036417  -0.007012
     34      -0.172720   0.231898  -0.196217  -0.051070  -0.335667   0.280451
     35       0.169781  -0.228171  -0.196641  -0.277656  -0.194021   0.279688
                 18         19         20         21         22         23    
      0      -0.001211   0.063606  -0.063000   0.026672   0.034171   0.001325
      1      -0.281457   0.053515   0.177981  -0.335029  -0.018026   0.257645
      2       0.281872   0.051593   0.179222   0.051992  -0.328372  -0.259093
      3      -0.000271   0.061471  -0.192952   0.112733   0.138230   0.000784
      4       0.001528   0.185938   0.087188   0.120506   0.186236   0.085724
      5      -0.000859   0.185938   0.087276   0.159892   0.156463  -0.082600
      6       0.000554  -0.123602  -0.073994  -0.139459  -0.171395  -0.001458
      7       0.213681   0.275011  -0.249659   0.182348   0.120841   0.226607
      8      -0.213240   0.276253  -0.248446   0.082865   0.203254  -0.225134
      9      -0.001030   0.063821   0.062611   0.032773  -0.028440  -0.001135
     10      -0.281803   0.053515  -0.178529  -0.328384  -0.050244  -0.261338
     11      -0.281361  -0.051896   0.179502   0.017652  -0.332495  -0.258345
     12       0.000271   0.061565   0.192958   0.137512  -0.112922   0.000664
     13       0.001633   0.185460  -0.087032   0.156768  -0.158488  -0.084011
     14       0.000521  -0.185801   0.086992  -0.187308   0.121871  -0.084674
     15       0.000522  -0.123529   0.073796  -0.171265   0.140256  -0.000966
     16       0.214014   0.275487   0.249559   0.204927  -0.081294  -0.224700
     17       0.212086  -0.276046  -0.248307  -0.118688   0.183658  -0.226540
     18       0.001222   0.063405  -0.064423  -0.028629  -0.034398  -0.001301
     19       0.281823  -0.053569  -0.178165  -0.331025  -0.014681  -0.261492
     20      -0.281467  -0.052132  -0.179801   0.048795  -0.330658   0.257082
     21      -0.000963  -0.125530   0.072228   0.172267  -0.140555   0.001148
     22      -0.214176  -0.275197  -0.249687   0.200938  -0.082034   0.226387
     23      -0.212298   0.276674   0.248613  -0.121894   0.180577   0.227080
     24       0.000215   0.060784   0.193747  -0.136990   0.111819   0.000737
     25      -0.001219  -0.186153   0.086242   0.155574  -0.159577   0.084899
     26      -0.000683   0.186417  -0.087712  -0.187356   0.120940   0.082862
     27       0.001365   0.063219   0.064716  -0.034898   0.027588   0.001334
[...]
     23      -0.029760  -0.242887  -0.078973   0.024147  -0.134852   0.187004
     24       0.194753  -0.110096  -0.108596  -0.180859  -0.022832   0.023758
     25       0.027424   0.014032   0.162235   0.034260  -0.092296   0.097726
     26      -0.011057   0.017990  -0.163637  -0.033907   0.094333  -0.096410
     27       0.349205  -0.201352  -0.266450   0.005606   0.182324  -0.192463
     28      -0.302771   0.025127   0.109383  -0.302638  -0.092517  -0.179423
     29       0.182757  -0.245117  -0.097783   0.302940  -0.185089  -0.087226
     30       0.023533   0.022806  -0.244721   0.174863  -0.321214  -0.311016
     31       0.239391  -0.036326  -0.085703  -0.024587   0.186305   0.135579
     32      -0.156223   0.175243  -0.105589  -0.024206   0.141462   0.181839
     33      -0.104938  -0.186100   0.127170  -0.180809  -0.023623  -0.022816
     34      -0.025248  -0.022804  -0.161555   0.034594  -0.095676  -0.094184
     35       0.006134  -0.040064  -0.159904   0.034351  -0.097559  -0.092739
                 30         31         32         33         34         35    
      0      -0.298547  -0.004221   0.086787  -0.365221   0.202111  -0.270624
      1      -0.085386  -0.265184   0.015967   0.103377  -0.151023   0.091784
      2      -0.087590  -0.266132  -0.059766   0.084276  -0.150760   0.090730
      3       0.034187   0.012559  -0.116768   0.493203  -0.353339   0.350616
      4      -0.090847   0.075284   0.021767  -0.087044   0.046079  -0.066739
      5      -0.090748   0.075268   0.019410  -0.086213   0.045155  -0.065838
      6       0.263227  -0.248909   0.055677  -0.234605   0.149572  -0.174909
      7       0.166722  -0.130966   0.034860  -0.060418   0.047175  -0.033710
      8       0.167474  -0.131767  -0.003933  -0.070303   0.047514  -0.034269
      9      -0.299561   0.003891  -0.365866  -0.086724   0.208225   0.265146
     10      -0.085089   0.265360   0.085417   0.060619  -0.153245  -0.087930
     11       0.088476  -0.266350  -0.102268   0.015732   0.152799   0.086823
     12       0.034482  -0.012423   0.493959   0.117423  -0.361143  -0.341201
     13      -0.091120  -0.075372  -0.087647  -0.019681   0.047589   0.065451
     14       0.091062   0.075447   0.085525   0.021344  -0.046405  -0.064352
     15       0.264086   0.249083  -0.235086  -0.055825   0.153477   0.170961
     16       0.166980   0.131051  -0.069768   0.003926   0.047892   0.032483
     17      -0.168537  -0.132219   0.061498   0.035251  -0.048427  -0.033270
     18      -0.300916  -0.001764  -0.086138   0.363883   0.205186  -0.272903
     19       0.087681   0.266000   0.015895   0.099861   0.150519  -0.090318
     20       0.086051   0.265815  -0.060345   0.082926   0.151007  -0.091259
     21       0.265572   0.249936   0.231946   0.055173   0.154858   0.172030
     22      -0.170223  -0.133253  -0.070376   0.003933  -0.049112  -0.033910
     23       0.169282   0.132810   0.060634   0.035007   0.048849   0.033504
     24       0.035178  -0.012570  -0.489537  -0.115879  -0.365430  -0.344771
     25       0.091553   0.075605  -0.083979  -0.018838  -0.046129  -0.063964
     26      -0.091861  -0.075656   0.085181   0.021277   0.047389   0.065185
     27      -0.299813   0.001798   0.363278   0.086370   0.212344   0.268044
     28       0.088332  -0.265772   0.081780   0.059098   0.152859   0.086881
     29      -0.085499   0.265632  -0.101189   0.016348  -0.153631  -0.087952
     30       0.267013  -0.249513  -0.054991   0.232549   0.150402  -0.175516
     31      -0.170610   0.132941   0.035169  -0.061250  -0.048199   0.034993
     32      -0.170370   0.132877  -0.003937  -0.070250  -0.048109   0.034738
     33       0.035092   0.012133   0.116738  -0.490347  -0.356263   0.353127
     34       0.092008  -0.075696   0.020915  -0.083583  -0.044405   0.064979
     35       0.092259  -0.075725   0.019189  -0.085394  -0.045380   0.065960


-----------
IR SPECTRUM
-----------

 Mode   freq       eps      Int      T**2         TX        TY        TZ
       cm**-1   L/(mol*cm) km/mol    a.u.
----------------------------------------------------------------------------
  6:    313.78   0.000734    3.71  0.000730  (-0.000006 -0.003698  0.026762)
  7:    313.87   0.000736    3.72  0.000731  (-0.000103 -0.026793 -0.003686)
  8:    336.43   0.000000    0.00  0.000000  ( 0.000010  0.000012  0.000019)
  9:    352.18   0.000000    0.00  0.000000  ( 0.000006  0.000009 -0.000006)
 10:    407.01   0.000055    0.28  0.000042  (-0.000049  0.006511 -0.000223)
 11:    407.39   0.000051    0.26  0.000039  (-0.000004 -0.000276 -0.006272)
 12:    407.51   0.000005    0.03  0.000004  ( 0.000016  0.000097 -0.001992)
 13:    410.73   0.000000    0.00  0.000000  ( 0.000046  0.000361 -0.000020)
 14:    417.65   0.000000    0.00  0.000000  (-0.000018 -0.000002  0.000018)
 15:    510.97   0.000481    2.43  0.000294  ( 0.000020 -0.003904  0.016687)
 16:    511.14   0.000482    2.44  0.000294  ( 0.000100  0.016707  0.003893)
 17:    526.79   0.000713    3.60  0.000422  (-0.020547  0.000067  0.000035)
 18:    618.02   0.000000    0.00  0.000000  ( 0.000145 -0.000019 -0.000012)
 19:    638.42   0.000264    1.33  0.000129  ( 0.011357 -0.000020 -0.000032)
 20:    642.60   0.000000    0.00  0.000000  (-0.000013 -0.000030  0.000009)
 21:    676.39   0.000062    0.32  0.000029  (-0.000007 -0.005336  0.000557)
 22:    676.65   0.000061    0.31  0.000028  (-0.000007 -0.000529 -0.005275)
 23:    690.31   0.000000    0.00  0.000000  (-0.000005 -0.000051 -0.000005)
 24:    781.56   0.001612    8.15  0.000644  (-0.000027 -0.007320  0.024290)
 25:    781.86   0.001599    8.08  0.000638  ( 0.000082  0.024172  0.007344)
 26:    782.79   0.000006    0.03  0.000002  (-0.000007 -0.001551 -0.000019)
 27:    879.04   0.000057    0.29  0.000020  (-0.004492  0.000018 -0.000008)
 28:   1073.29   0.000602    3.04  0.000175  ( 0.000137  0.013232  0.000229)
 29:   1073.45   0.000597    3.02  0.000174  ( 0.000039 -0.000229  0.013172)
 30:   1089.07   0.000778    3.93  0.000223  ( 0.014927 -0.000117 -0.000023)
 31:   1110.68   0.000000    0.00  0.000000  ( 0.000005  0.000022  0.000013)
 32:   1284.10   0.000000    0.00  0.000000  (-0.000052 -0.000169  0.000265)
 33:   1284.31   0.000000    0.00  0.000000  (-0.000021 -0.000271 -0.000165)
 34:   1320.45   0.000462    2.34  0.000109  ( 0.010453 -0.000030  0.000001)
 35:   1325.87   0.000000    0.00  0.000000  (-0.000120 -0.000001  0.000024)

* The epsilon (eps) is given for a Dirac delta lineshape.
** The dipole moment derivative (T) already includes vibrational overlap.

The first frequency considered to be a vibration is 6
The total number of vibrations considered is 30


--------------------------
THERMOCHEMISTRY AT 298.15K
--------------------------

Temperature         ...   298.15 K
Pressure            ...     1.00 atm
Total Mass          ...   129.72 AMU
Quasi RRHO          ...     True
Cut-Off Frequency   ...     1.00 cm^-1

Throughout the following assumptions are being made:
  (1) The electronic state is orbitally nondegenerate
  (2) There are no thermally accessible electronically excited states
  (3) Hindered rotations indicated by low frequency modes are not
      treated as such but are treated as vibrations and this may
      cause some error
  (4) All equations used are the standard statistical mechanics
      equations for an ideal gas
  (5) All vibrations are strictly harmonic

freq.     313.78  E(vib)   ...       0.25 
freq.     313.87  E(vib)   ...       0.25 
freq.     336.43  E(vib)   ...       0.24 
freq.     352.18  E(vib)   ...       0.23 
freq.     407.01  E(vib)   ...       0.19 
freq.     407.39  E(vib)   ...       0.19 
freq.     407.51  E(vib)   ...       0.19 
freq.     410.73  E(vib)   ...       0.19 
freq.     417.65  E(vib)   ...       0.18 
freq.     510.97  E(vib)   ...       0.14 
freq.     511.14  E(vib)   ...       0.14 
freq.     526.79  E(vib)   ...       0.13 
freq.     618.02  E(vib)   ...       0.09 
freq.     638.42  E(vib)   ...       0.09 
freq.     642.60  E(vib)   ...       0.09 
freq.     676.39  E(vib)   ...       0.08 
freq.     676.65  E(vib)   ...       0.08 
freq.     690.31  E(vib)   ...       0.07 
freq.     781.56  E(vib)   ...       0.05 
freq.     781.86  E(vib)   ...       0.05 
freq.     782.79  E(vib)   ...       0.05 
freq.     879.04  E(vib)   ...       0.04 
freq.    1073.29  E(vib)   ...       0.02 
freq.    1073.45  E(vib)   ...       0.02 
freq.    1089.07  E(vib)   ...       0.02 
freq.    1110.68  E(vib)   ...       0.02 
freq.    1284.10  E(vib)   ...       0.01 
freq.    1284.31  E(vib)   ...       0.01 
freq.    1320.45  E(vib)   ...       0.01 
freq.    1325.87  E(vib)   ...       0.01 

------------
INNER ENERGY
------------

The inner energy is: U= E(el) + E(ZPE) + E(vib) + E(rot) + E(trans)
    E(el)   - is the total energy from the electronic structure calculation
              = E(kin-el) + E(nuc-el) + E(el-el) + E(nuc-nuc)
    E(ZPE)  - the the zero temperature vibrational energy from the frequency calculation
    E(vib)  - the the finite temperature correction to E(ZPE) due to population
              of excited vibrational states
    E(rot)  - is the rotational thermal energy
    E(trans)- is the translational thermal energy

Summary of contributions to the inner energy U:
Electronic energy                ...   -297.79440883 Eh
Zero point energy                ...      0.04930934 Eh      30.94 kcal/mol
Thermal vibrational correction   ...      0.00492684 Eh       3.09 kcal/mol
Thermal rotational correction    ...      0.00141627 Eh       0.89 kcal/mol
Thermal translational correction ...      0.00141627 Eh       0.89 kcal/mol
-----------------------------------------------------------------------
Total thermal energy                   -297.73734011 Eh


Summary of corrections to the electronic energy:
(perhaps to be used in another calculation)
Total thermal correction                  0.00775938 Eh       4.87 kcal/mol
Non-thermal (ZPE) correction              0.04930934 Eh      30.94 kcal/mol
-----------------------------------------------------------------------
Total correction                          0.05706872 Eh      35.81 kcal/mol


--------
ENTHALPY
--------

The enthalpy is H = U + kB*T
                kB is Boltzmann's constant
Total thermal energy              ...   -297.73734011 Eh 
Thermal Enthalpy correction       ...      0.00094421 Eh       0.59 kcal/mol
-----------------------------------------------------------------------
Total Enthalpy                    ...   -297.73639590 Eh


Note: Only C1 symmetry has been detected, increase convergence thresholds 
      if your molecule has a higher symmetry. Symmetry factor of 1.0 is   
      used for the rotational entropy correction. 
 

Note: Rotational entropy computed according to Herzberg 
Infrared and Raman Spectra, Chapter V,1, Van Nostrand Reinhold, 1945 
Point Group:  C1, Symmetry Number:   1  
Rotational constants in cm-1:     0.090894     0.054459     0.054455 

Vibrational entropy computed according to the QRRHO of S. Grimme
Chem.Eur.J. 2012 18 9955 using a reference frequency of 100.0 cm-1


-------
ENTROPY
-------

The entropy contributions are T*S = T*(S(el)+S(vib)+S(rot)+S(trans))
     S(el)   - electronic entropy
     S(vib)  - vibrational entropy
     S(rot)  - rotational entropy
     S(trans)- translational entropy
The entropies will be listed as multiplied by the temperature to get
units of energy

Electronic entropy                ...      0.00000000 Eh      0.00 kcal/mol
Vibrational entropy               ...      0.00710623 Eh      4.46 kcal/mol
Rotational entropy                ...      0.01339080 Eh      8.40 kcal/mol
Translational entropy             ...      0.01923977 Eh     12.07 kcal/mol
-----------------------------------------------------------------------
Final entropy term                ...      0.03973680 Eh     24.94 kcal/mol

In case the symmetry of your molecule has not been determined correctly
or in case you have a reason to use a different symmetry number we print 
out the resulting rotational entropy values for sn=1,12:

 non-linear molecules -----------------------------------
|  sn= 1 | S(rot)=       0.01339080 Eh      8.40 kcal/mol|
|  sn= 2 | S(rot)=       0.01273635 Eh      7.99 kcal/mol|
|  sn= 3 | S(rot)=       0.01235351 Eh      7.75 kcal/mol|
|  sn= 4 | S(rot)=       0.01208189 Eh      7.58 kcal/mol|
|  sn= 5 | S(rot)=       0.01187120 Eh      7.45 kcal/mol|
|  sn= 6 | S(rot)=       0.01169906 Eh      7.34 kcal/mol|
|  sn= 7 | S(rot)=       0.01155351 Eh      7.25 kcal/mol|
|  sn= 8 | S(rot)=       0.01142743 Eh      7.17 kcal/mol|
|  sn= 9 | S(rot)=       0.01131623 Eh      7.10 kcal/mol|
|  sn=10 | S(rot)=       0.01121675 Eh      7.04 kcal/mol|
|  sn=11 | S(rot)=       0.01112676 Eh      6.98 kcal/mol|
|  sn=12 | S(rot)=       0.01104460 Eh      6.93 kcal/mol|
 linear molecules ---------------------------------------
|  Dinfh | S(rot)=       0.00807374 Eh      5.07 kcal/mol|
|  Cinfv | S(rot)=       0.00872819 Eh      5.48 kcal/mol|
 --------------------------------------------------------


-------------------
GIBBS FREE ENERGY
-------------------

The Gibbs free energy is G = H - T*S

Total enthalpy                    ...   -297.73639590 Eh 
Total entropy correction          ...     -0.03973680 Eh    -24.94 kcal/mol
-----------------------------------------------------------------------
Final Gibbs free energy         ...   -297.77613271 Eh

For completeness - the Gibbs free energy minus the electronic energy
G-E(el)                           ...      0.01827612 Eh     11.47 kcal/mol


Maximum memory used throughout the entire PROP-calculation: 36.7 MB
Converting b12_hexagonal_prism_m1_spinfreq.gbw to JSON (see b12_hexagonal_prism_m1_spinfreq.2jsonout) ... done

--------------------------------
SUGGESTED CITATIONS FOR THIS RUN
--------------------------------

Below you find a list of papers that are relevant to this ORCA run
We neither can nor want to force you to cite these papers, but we appreciate if you do
You receive ORCA, which is the product of decades of hard work by many enthusiastic individuals, for free
The only thing we kindly ask in return is that you cite our papers,
We deeply appreciate it, if you show your appreciation for ORCA by not just citing the generic ORCA reference.

Please note that relegating all ORCA citations to the supporting information does *not* help us.
SI sections are not indexed - citations you put there will not count into any citation statistics
But we need these citations in order to attract the funding resources that allow us to do what we are doing

Therefore, if you are a happy ORCA user, please consider citing a few of the papers listed below in the main body of your paper

In addition to the list printed below, the program has created the file b12_hexagonal_prism_m1_spinfreq.bibtex that contains the list in bibtex format
You can import this file easily into all common literature databanks and citation aid programs

It goes without saying that in many instances, there are alternative algorithms to achieve similar
results as the ones you have gotten from ORCA. It is, of course, also the case that in some instances
ORCA just re-implements algorithms worked out by others. We are fully aware of that and we are also
fully appreciative of our colleagues work. Hence this citation list should not be read as indicating
that the listed papers, which are focused on our own work, are the only ones worth citing. It simply
meant to make it easier for users to cite ORCA specific papers. It is not a substitute for doing your
own literature research and citing the relevant literature in a scientifically appropriate manner.

List of essential papers. We consider these as the minimum necessary citations

  1. Grimme, S.; Hansen, A.; Ehlert, S.; Mewes, J.
     r2SCAN-3c: A 'Swiss army knife' composite electronic-structure method
     J. Chem. Phys. 2021 154 , 064103
     doi.org/10.1063/5.0040021
  2. Neese, F.
     Software update: the ORCA program system, version 6.0
     WIRES Comput. Molec. Sci. 2025 15(1), e70019
     doi.org/10.1002/wcms.70019

List of papers to cite with high priority. The work reported in these papers was absolutely
necessary for this run to complete.
Our perspective: the developers of density functionals and basis sets usually get cited in chemistry papers
Good! But without the algorithms to do something with them, the functionals or basis sets would not do anything.
Hence, in our opinion, the algorithm design and method developments papers are equally worthy of getting cited

  1. Neese, F.
     An improvement of the resolution of the identity approximation for the formation of the Coulomb matrix
     J. Comp. Chem. 2003 24(14), 1740-1747
     doi.org/10.1002/jcc.10318
  2. Bykov, D.; Petrenko, T.; Izsak, R.; Kossmann, S.; Becker, U.; Valeev, E.; Neese, F.
     Efficient implementation of the analytic second derivatives of Hartree-Fock and hybrid DFT energies: a detailed analysis of different approximations
     Molec. Phys. 2015 113 , 1961-1977
     doi.org/10.1080/00268976.2015.1025114
  3. Caldeweyher, E.; Bannwarth, C.; Grimme, S.
     Extension of the D3 dispersion coefficient model
     J. Chem. Phys. 2017 147 , 034112
     doi.org/10.1063/1.4993215
  4. Lehtola, S.; Steigemann, C.; Oliveira, M.; Marques, M.
     Recent developments in Libxc - A comprehensive library of functionals for density functional theory
     Software X 2018 7 , 
     doi.org/10.1016/j.softx.2017.11.002
  5. Caldeweyher, E.; Ehlert, S.; Hansen, A.; Neugebauer, H.; Spicher, S.; Bannwarth, C.; Grimme, S.
     A generally applicable atomic-charge dependent London dispersion correction
     J. Chem. Phys. 2019 150 , 154122
     doi.org/10.1063/1.5090222
  6. Neese, F.
     The SHARK Integral Generation and Digestion System
     J. Comp. Chem. 2022 44(3), 381
     doi.org/10.1002/jcc.26942

List of suggested additional citations. These are papers that are important in the 'surrounding' of 
of this run, or papers that preceded the highly important papers. If you like your results we are grateful for a citation.

  1. Neese, F.
     The ORCA program system
     WIRES Comput. Molec. Sci. 2012 2(1), 73-78
     doi.org/10.1002/wcms.81
  2. Neese, F.
     Software update: the ORCA program system, version 4.0
     WIRES Comput. Molec. Sci. 2018 8(1), 1-6
     doi.org/10.1002/wcms.1327
  3. Neese, F.; Wennmohs, F.; Becker, U.; Riplinger, C.
     The ORCA quantum chemistry program package
     J. Chem. Phys. 2020 152(22), 224108
     doi.org/10.1063/5.0004608
  4. Neese, F.
     Software update: The ORCA program system—Version 5.0
     WIRES Comput. Molec. Sci. 2022 12(1), e1606
     doi.org/10.1002/wcms.1606

List of optional additional citations

  1. Neese, F.
     Approximate second-order SCF convergence for spin unrestricted wavefunctions
     Chem. Phys. Lett. 2000 325(1-3), 93-98
     doi.org/10.1016/s0009-2614(00)00662-x

Timings for individual modules:

Sum of individual times          ...       97.156 sec (=   1.619 min)
Startup calculation              ...        0.670 sec (=   0.011 min)   0.7 %
SCF iterations                   ...        7.515 sec (=   0.125 min)   7.7 %
Property integrals               ...       43.157 sec (=   0.719 min)  44.4 %
SCF Response                     ...       34.690 sec (=   0.578 min)  35.7 %
Property calculations            ...       11.124 sec (=   0.185 min)  11.4 %
                             ****ORCA TERMINATED NORMALLY****
TOTAL RUN TIME: 0 days 0 hours 1 minutes 37 seconds 675 msec
