
                                 *****************
                                 * O   R   C   A *
                                 *****************

                                            #,                                       
                                            ###                                      
                                            ####                                     
                                            #####                                    
                                            ######                                   
                                           ########,                                 
                                     ,,################,,,,,                         
                               ,,#################################,,                 
                          ,,##########################################,,             
                       ,#########################################, ''#####,          
                    ,#############################################,,   '####,        
                  ,##################################################,,,,####,       
                ,###########''''           ''''###############################       
              ,#####''   ,,,,##########,,,,          '''####'''          '####       
            ,##' ,,,,###########################,,,                        '##       
           ' ,,###''''                  '''############,,,                           
         ,,##''                                '''############,,,,        ,,,,,,###''
      ,#''                                            '''#######################'''  
     '                                                          ''''####''''         
             ,#######,   #######,   ,#######,      ##                                
            ,#'     '#,  ##    ##  ,#'     '#,    #''#        ,####,    ,#,          
            ##       ##  ##   ,#'  ##            #'  '#       #'       ,# #          
            ##       ##  #######   ##           ,######,      #####,      #          
            '#,     ,#'  ##    ##  '#,     ,#' ,#      #,     #,   #      #          
             '#######'   ##     ##  '#######'  #'      '#     '####' #    #          



                #########################################################
                #                        -***-                          #
                #          Department of theory and spectroscopy        #
                #                                                       #
                #                      Frank Neese                      #
                #                                                       #
                #     Directorship, Architecture, Infrastructure        #
                #                    SHARK, DRIVERS                     #
                #        Core code/Algorithms in most modules           #
                #                                                       #
                #        Max Planck Institute fuer Kohlenforschung      #
                #                Kaiser Wilhelm Platz 1                 #
                #                 D-45470 Muelheim/Ruhr                 #
                #                      Germany                          #
                #                                                       #
                #                  All rights reserved                  #
                #                        -***-                          #
                #########################################################


                         Program Version 6.1.1  -  RELEASE   -


 With contributions from (in alphabetic order):
[Max-Planck-Institut fuer Kohlenforschung]                               
  Daniel Aravena         : Magnetic Suceptibility                        
  Michael Atanasov       : Ab Initio Ligand Field Theory (pilot matlab implementation)
  Alexander A. Auer      : GIAO ZORA, VPT2 properties, NMR spectrum      
  Ute Becker             : All parallelization in ORCA, NUMFREQ, NUMCALC 
  Giovanni Bistoni       : ED, misc. LED, open-shell LED, HFLD           
  Dmytro Bykov           : pre 5.0 version of the SCF Hessian            
  Marcos Casanova-Páez   : Triplet and SCS-CIS(D). UHF-(DLPNO)-IP/EA/STEOM-CCSD. UHF-CVS-IP/STEOM-CCSD   
  Vijay G. Chilkuri      : MRCI spin determinant printing, contributions to CSF-ICE 
  Pauline Colinet        : FMM embedding                                 
  Dipayan Datta          : RHF DLPNO-CCSD density                        
  Achintya Kumar Dutta   : EOM-CC, STEOM-CC                              
  Nicolas Foglia         : Exact transition moments, OPA infrastructure, MCD improvements    
  Dmitry Ganyushin       : Spin-Orbit,Spin-Spin,Magnetic field MRCI      
  Miquel Garcia-Rates    : C-PCM and meta-GGA Hessian, CCSD/C-PCM, Gaussian charge scheme 
  Tiago L. C. Gouveia    : GS-ROHF, GS-ROCIS                             
  Yang Guo               : DLPNO-NEVPT2, F12-NEVPT2, CIM, IAO-localization        
  Andreas Hansen         : Spin unrestricted coupled pair/coupled cluster methods 
  Ingolf Harden          : AUTO-CI MPn and infrastructure                
  Benjamin Helmich-Paris : MC-RPA, TRAH-(SCF,CASSCF), AVAS, COSX integrals, SCF dyn. polar., MC-PDFT, srDFT 
  Lee Huntington         : MR-EOM, pCC                                   
  Robert Izsak           : Overlap fitted RIJCOSX, COSX-SCS-MP3, EOM     
  Riya Kayal             : Wick's Theorem for AUTO-CI, AUTO-CI UHF-CCSDT 
  Emily Kempfer          : AUTO-CI RHF CISDT and CCSDT, approximate NEVPT4
  Christian Kollmar      : KDIIS, OOCD, Brueckner-CCSD(T), CCSD density, CASPT2, CASPT2-K, improved NEVPT2 
  Axel Koslowski         : Symmetry handling                             
  Simone Kossmann        : meta-GGA functionals, TD-DFT gradient, OOMP2, (MP2 Hessian; deprecated post 5.0) 
  Lucas Lang             : DCDCAS, Hyperfine gauge corrections, ICE-SOC+SSC
  Marvin Lechner         : AUTO-CI (C++ implementation), FIC-MRCC        
  Spencer Leger          : CASSCF response                               
  Dagmar Lenk            : GEPOL surface, SMD, ORCA-2-JSON               
  Dimitrios Liakos       : Extrapolation schemes; Compound Job, Property file
  Dimitrios Manganas     : Further ROCIS development; embedding schemes. LFT, Crystal Embedding 
  Dimitrios Pantazis     : SARC Basis sets                               
  Anastasios Papadopoulos: AUTO-CI, single reference methods and gradients 
  Taras Petrenko         : pre 6.0 DFT Hessian and TD-DFT gradient,  ECA, NRVS 
  Petra Pikulova         : Analytic Raman intensities                    
  Peter Pinski           : DLPNO-MP2, DLPNO-MP2 Gradient                 
  Shashank Vittal Rao    : ES-AILFT, MagRelax                            
  Christoph Reimann      : Effective Core Potentials                     
  Marius Retegan         : Local ZFS, SOC                                
  Christoph Riplinger    : Optimizer, TS searches, QM/MM, DLPNO-CCSD(T), (RO)-DLPNO pert. Triples 
  Michael Roemelt        : Original ROCIS implementation, recursive CI coupling coefficients
  Masaaki Saitow         : Open-shell DLPNO-CCSD energy and density      
  Barbara Sandhoefer     : DKH picture change effects                    
  Yorick L. A. Schmerwitz: GMF and freeze-and-release deltaSCF, NEB S-IDPP initial path                    
  Kantharuban Sivalingam : CASSCF convergence/infrastructure, NEVPT2, NEVPT3, NEVPT4(SD), FIC-MRCI and CEPA variants
  Bernardo de Souza      : ESD, SOC TD-DFT                               
  Georgi L. Stoychev     : AutoAux, RI-MP2 NMR, DLPNO-MP2 response, X2C  
  Van Anh Tran           : RI-MP2 g-tensors                              
  Willem Van den Heuvel  : Paramagnetic NMR                              
  Zikuan Wang            : NOTCH, Electric field optimization            
  Frank Wennmohs         : Technical directorship and infrastructure     
  Hang Xu                : AUTO-CI-Response properties                   
                                                                         
[FACCTs GmbH]                                                            
  Markus Bursch, Nicolas Foglia, Miquel Garcia-Rates, Ingolf Harden, Hagen Neugebauer, Anastasios Papadopoulos, 
  Christoph Riplinger, Bernardo de Souza, Georgi L. Stoychev                                                    
                                                                 
  APM, various basis sets, CI-OPT, improved COSX, DLPNO-Multilevel,           
  DOCKER, DRACO, updates on ESD, Fragmentator, GOAT, IRC, LR-CPCM, L-BFGS, MBIS, meta-GGA TD-DFT gradient, ML-optimized integration grids, 
  MM, NACMEs, nearIR, NEB, NEB-TS, NL-DFT gradient (VV10), 2- and 3-layer-ONIOM, interface openCOSMO-RS, QMMM,   
  Crystal-QMMM, RESP, rigid body optimization, SF, symmetry and pop. for TD-DFT, various functionals, SOLVATOR                                   
                                                                         
[Other institutions]                                                     
  V. Asgeirsson          : NEB                                           
  Christoph Bannwarth    : sTDA-DFT, sTD-DFT, PBEh-3c, B97-3c, D3        
  Giovanni Bistoni       : ETS/NOCV, ADLD/ADEX, COVALED                  
  Martin Brehm           : Molecular dynamics                            
  Ronald Cardenas        : ETS/NOCV                                      
  Martina Colucci        : COVALED                                       
  Sebastian Ehlert       : rSCAN, r2SCAN, r2SCAN-3c, D4, dhf basis sets  
  Marvin Friede          : D4 for Fr, Ra, Ac-Lr                          
  Lars Goerigk           : TD-DFT with DH, B97 family of functionals     
  Stefan Grimme          : VdW corrections, initial TS optimization, DFT functionals, gCP, sTDA/sTD-DF 
  Waldemar Hujo          : DFT-NL                                        
  H. Jonsson             : NEB                                           
  Holger Kruse           : gCP                                           
  Marcel Mueller         : wB97X-3c, vDZP basis set                      
  Hagen Neugebauer       : wr2SCAN, Native XTB                           
  Gianluca Regni         : ADLD/ADEX                                     
  Tobias Risthaus        : pre 6.0 range-separated hybrid DFT and stability analysis
  Lukas Wittmann         : regularized MP2, r2SCAN double-hybrids, wr2SCAN        
                                                                         
We gratefully acknowledge several colleagues who have allowed us to      
interface, adapt or use parts of their codes:                            
  Ed Valeev, F. Pavosevic, A. Kumar             : LibInt (2-el integral package), F12 methods 
  Garnet Chan, S. Sharma, J. Yang, R. Olivares  : DMRG                   
  Ulf Ekstrom                                   : XCFun DFT Library      
  Mihaly Kallay                                 : mrcc  (arbitrary order and MRCC methods)
  Frank Weinhold                                : gennbo (NPA and NBO analysis)           
  Simon Mueller                                 : openCOSMO-RS                            
  Christopher J. Cramer and Donald G. Truhlar   : smd solvation model                     
  S Lehtola, MJT Oliveira, MAL Marques          : LibXC Library                           
  Liviu Ungur et al                             : ANISO software                          


 Your calculation uses the libint2 library for the computation of 2-el integrals
 For citations please refer to: http://libint.valeyev.net

 Your ORCA version has been built with support for libXC version: 7.0.0
 For citations please refer to: https://libxc.gitlab.io

 This ORCA versions uses:
   CBLAS   interface :  Fast vector & matrix operations
   LAPACKE interface :  Fast linear algebra routines
   Shared memory     :  Shared parallel matrices


  ***********************************
  * Starting time: Mon Mar 30 17:57:23 2026
  * Host name:     DESKTOP-E59RH2R
  * Process ID:    84432
  * Working dir.:  C:\Users\gnome\Desktop\Vitya_Diplom\Vitya_DiplomB12\05_spin_comparison\b12_hexagonal_prism\mult_5\opt
  ***********************************

NOTE: MaxCore=1500 MB was set to SCF,MP2,MDCI,CIPSI,MRCI,RASCI and CIS
      => If you want to overwrite this, your respective input block should be placed after the MaxCore statement
Your calculation utilizes the geometrical counterpoise correction gCP
Please cite in your paper:
H.Kruse, S. Grimme J.Chem.Phys., 136, (2012), 154101 
   

Your calculation utilizes the atom-pairwise dispersion correction
based on EEQ partial charges (D4)


================================================================================

----- Orbital basis set information -----
Your calculation utilizes the basis: def2-mTZVPP
   Stefan Grimme, Andreas Hansen, Sebastian Ehlert, and Jan-Michael Mewes 
   J. Chem. Phys. 154, 064103 (2021). DOI: 10.1063/5.0040021

----- AuxJ basis set information -----
Your calculation utilizes the basis: def2-mTZVPP/J
   Stefan Grimme, Andreas Hansen, Sebastian Ehlert, and Jan-Michael Mewes 
   J. Chem. Phys. 154, 000000 (2021). DOI: 10.1063/5.0040021

================================================================================
                                        WARNINGS
                       Please study these warnings very carefully!
================================================================================



WARNING: SCAN, rSCAN, or r2SCAN functional requested.
  ===> : libXC variant has now been activated.



WARNING: your system is open-shell and RHF/RKS was chosen
  ===> : WILL SWITCH to UHF/UKS


WARNING: Geometry Optimization
  ===> : Switching off AutoStart
         For restart on a previous wavefunction, please use MOREAD

================================================================================
                                       INPUT FILE
================================================================================
NAME = b12_hexagonal_prism_m5_spinopt.inp
|  1> !r2scan-3c
|  2> !tightopt
|  3> !tightscf
|  4> 
|  5> %output
|  6>     jsonpropfile true
|  7>     jsongbwfile true
|  8> end
|  9> 
| 10> %maxcore 1500
| 11> %pal
| 12>   nprocs 8
| 13> end
| 14> 
| 15> * xyz 0 5
| 16> B             1.9301996024580399             0.5863756100549200             0.5914869941246500
| 17> B             0.5793009173024000             1.0891256384135299             1.0906522757569499
| 18> B            -0.9802515399658500             0.7802218754564600             0.7776110567997300
| 19> B            -1.9296762559171501            -0.5862157376614801             0.5925268712397200
| 20> B            -0.5785159118419100            -1.0889884976686901             1.0913572253643000
| 21> B             0.9807590209072700            -0.7801643868435000             0.7767253987831100
| 22> B             1.9258864733159200            -0.5983167664020400            -0.5926512068307001
| 23> B             0.9848940629915101             0.7739519743266600            -0.7770073049671500
| 24> B            -0.5727248782637900             1.0921657197385599            -1.0913361649405000
| 25> B            -1.9264768994946000             0.5984055665238700            -0.5914298300749600
| 26> B            -0.9853007682228200            -0.7741334981562100            -0.7763883161752800
| 27> B             0.5719061767309900            -1.0924274977820601            -1.0915469990798801
| 28> *
| 29> 
| 30>                          ****END OF INPUT****
================================================================================

                       *****************************
                       * Geometry Optimization Run *
                       *****************************

Geometry optimization settings:
Update method            Update   .... BFGS
Choice of coordinates    CoordSys .... (2022) Redundant Internals
Initial Hessian          InHess   .... Almloef's Model
Max. no of cycles        MaxIter  .... 50

Convergence Tolerances:
Energy Change            TolE     ....  1.0000e-06 Eh
Max. Gradient            TolMAXG  ....  1.0000e-04 Eh/bohr
RMS Gradient             TolRMSG  ....  3.0000e-05 Eh/bohr
Max. Displacement        TolMAXD  ....  1.0000e-03 bohr
RMS Displacement         TolRMSD  ....  6.0000e-04 bohr
Strict Convergence                .... False

------------------------------------------------------------------------------
                        ORCA OPTIMIZATION COORDINATE SETUP
------------------------------------------------------------------------------

The optimization will be done in redundant internal coordinates (2022)
Making redundant internal coordinates   ...  (2022 redundants) done
Evaluating the initial hessian          ...  (Almloef) done
Evaluating the coordinates              ...  done
Calculating the B-matrix                .... done
Calculating the G-matrix                .... done
The number of degrees of freedom        ....  290

    -----------------------------------------------------------------
                    Redundant Internal Coordinates


    -----------------------------------------------------------------
         Definition                    Initial Value    Approx d2E/dq
    -----------------------------------------------------------------
      1. B(B   1,B   0)                  1.5254         0.509740   
      2. B(B   2,B   1)                  1.6204         0.359602   
      3. B(B   3,B   2)                  1.6742         0.295130   
      4. B(B   4,B   3)                  1.5255         0.509497   
      5. B(B   4,B   2)                  1.9375         0.112183   
      6. B(B   5,B   1)                  1.9375         0.112163   
      7. B(B   5,B   0)                  1.6743         0.295011   
      8. B(B   5,B   4)                  1.6204         0.359568   
      9. B(B   6,B   5)                  1.6738         0.295547   
     10. B(B   6,B   0)                  1.6750         0.294198   
     11. B(B   7,B   6)                  1.6741         0.295207   
     12. B(B   7,B   1)                  1.9370         0.112373   
     13. B(B   7,B   0)                  1.6738         0.295535   
     14. B(B   8,B   7)                  1.6206         0.359350   
     15. B(B   8,B   2)                  1.9381         0.111909   
     16. B(B   9,B   8)                  1.5252         0.510047   
     17. B(B   9,B   3)                  1.6748         0.294394   
     18. B(B   9,B   2)                  1.6741         0.295176   
     19. B(B  10,B   9)                  1.6745         0.294783   
     20. B(B  10,B   8)                  1.9371         0.112320   
     21. B(B  10,B   4)                  1.9373         0.112257   
     22. B(B  10,B   3)                  1.6736         0.295690   
     23. B(B  11,B  10)                  1.6203         0.359639   
     24. B(B  11,B   7)                  1.9372         0.112279   
     25. B(B  11,B   6)                  1.5252         0.510075   
     26. B(B  11,B   5)                  1.9378         0.112041   
     27. A(B   1,B   0,B   5)           74.3713         0.380154   
     28. A(B   6,B   0,B   7)           59.9875         0.346199   
     29. A(B   1,B   0,B   6)          117.5266         0.379972   
     30. A(B   5,B   0,B   6)           59.9656         0.346095   
     31. A(B   1,B   0,B   7)           74.3626         0.380271   
     32. A(B   5,B   0,B   7)           82.0481         0.346359   
     33. A(B   0,B   1,B   5)           56.3238         0.322918   
     34. A(B   0,B   1,B   2)          136.5779         0.393498   
     35. A(B   5,B   1,B   7)           69.1089         0.255123   
     36. A(B   2,B   1,B   5)           89.0946         0.305156   
     37. A(B   0,B   1,B   7)           56.3179         0.323017   
     38. A(B   2,B   1,B   7)           89.0969         0.305248   
     39. A(B   3,B   2,B   8)           98.2796         0.295597   
     40. A(B   3,B   2,B   9)           60.0277         0.346312   
     41. A(B   3,B   2,B   4)           49.3115         0.295711   
     42. A(B   1,B   2,B   4)           87.3100         0.305165   
     43. A(B   4,B   2,B   9)           98.3283         0.295718   
     44. A(B   4,B   2,B   8)          105.5356         0.254975   
     45. A(B   1,B   2,B   3)          136.2838         0.358071   
     46. A(B   1,B   2,B   8)           87.3196         0.305045   
     47. A(B   8,B   2,B   9)           49.2884         0.295604   
     48. A(B   1,B   2,B   9)          136.2763         0.358080   
     49. A(B   9,B   3,B  10)           60.0094         0.346268   
     50. A(B   2,B   3,B  10)           82.0720         0.346413   
     51. A(B   4,B   3,B   9)          117.5528         0.379985   
     52. A(B   2,B   3,B   9)           59.9849         0.346157   
     53. A(B   2,B   3,B   4)           74.3691         0.380149   
     54. A(B   4,B   3,B  10)           74.3762         0.380274   
     55. A(B   3,B   4,B  10)           56.3038         0.322937   
     56. A(B   2,B   4,B  10)           69.1170         0.255091   
     57. A(B   3,B   4,B   5)          136.5508         0.393459   
     58. A(B   2,B   4,B   3)           56.3194         0.322902   
     59. A(B   2,B   4,B   5)           89.0956         0.305160   
     60. A(B   5,B   4,B  10)           89.0765         0.305192   
     61. A(B   4,B   5,B   6)          136.2969         0.358151   
     62. A(B   4,B   5,B  11)           87.3326         0.305098   
     63. A(B   1,B   5,B   4)           87.3077         0.305151   
     64. A(B   0,B   5,B   4)          136.2797         0.358040   
     65. A(B   6,B   5,B  11)           49.2974         0.295718   
     66. A(B   1,B   5,B   6)           98.3222         0.295769   
     67. A(B   0,B   5,B   1)           49.3049         0.295684   
     68. A(B   0,B   5,B   6)           60.0395         0.346362   
     69. A(B   1,B   5,B  11)          105.5430         0.255012   
     70. A(B   0,B   5,B  11)           98.3085         0.295633   
     71. A(B   5,B   6,B   7)           82.0539         0.346400   
     72. A(B   0,B   6,B   7)           59.9696         0.346134   
     73. A(B   5,B   6,B  11)           74.4037         0.380317   
     74. A(B   0,B   6,B   5)           59.9949         0.346201   
     75. A(B   7,B   6,B  11)           74.3684         0.380241   
     76. A(B   0,B   6,B  11)          117.5583         0.380016   
     77. A(B   1,B   7,B   6)           98.3311         0.295802   
     78. A(B   0,B   7,B   6)           60.0428         0.346398   
     79. A(B   0,B   7,B   1)           49.3196         0.295854   
     80. A(B   8,B   7,B  11)           87.2936         0.305173   
     81. A(B   6,B   7,B  11)           49.3059         0.295763   
     82. A(B   1,B   7,B  11)          105.5854         0.255162   
     83. A(B   0,B   7,B  11)           98.3479         0.295815   
     84. A(B   6,B   7,B   8)          136.2676         0.358044   
     85. A(B   1,B   7,B   8)           87.3526         0.305213   
     86. A(B   0,B   7,B   8)          136.3378         0.358112   
     87. A(B   9,B   8,B  10)           56.3434         0.323024   
     88. A(B   7,B   8,B  10)           89.0830         0.305190   
     89. A(B   2,B   8,B  10)           69.1066         0.255021   
     90. A(B   7,B   8,B   9)          136.5481         0.393491   
     91. A(B   2,B   8,B   9)           56.3039         0.322830   
     92. A(B   2,B   8,B   7)           89.0521         0.305011   
     93. A(B   3,B   9,B  10)           59.9599         0.346089   
     94. A(B   2,B   9,B  10)           82.0483         0.346244   
     95. A(B   3,B   9,B   8)          117.5396         0.380056   
     96. A(B   2,B   9,B   8)           74.4077         0.380231   
     97. A(B   2,B   9,B   3)           59.9874         0.346167   
     98. A(B   8,B   9,B  10)           74.3520         0.380143   
     99. A(B   4,B  10,B   8)          105.5814         0.255137   
    100. A(B   3,B  10,B   8)           98.3364         0.295857   
    101. A(B   3,B  10,B   4)           49.3200         0.295830   
    102. A(B   9,B  10,B  11)          136.2750         0.358005   
    103. A(B   8,B  10,B  11)           87.3030         0.305230   
    104. A(B   4,B  10,B  11)           87.3519         0.305202   
    105. A(B   3,B  10,B  11)          136.3373         0.358193   
    106. A(B   8,B  10,B   9)           49.3046         0.295713   
    107. A(B   4,B  10,B   9)           98.3226         0.295687   
    108. A(B   3,B  10,B   9)           60.0307         0.346345   
    109. A(B   7,B  11,B  10)           89.0859         0.305212   
    110. A(B   6,B  11,B  10)          136.5417         0.393550   
    111. A(B   5,B  11,B  10)           89.0598         0.305108   
    112. A(B   6,B  11,B   7)           56.3258         0.323008   
    113. A(B   5,B  11,B   7)           69.0982         0.255051   
    114. A(B   5,B  11,B   6)           56.2988         0.322895   
    115. D(B   2,B   1,B   0,B   5)    -42.9718         0.014071   
    116. D(B   2,B   1,B   0,B   6)     -0.0154         0.014071   
    117. D(B   7,B   1,B   0,B   5)    -85.9360         0.014071   
    118. D(B   5,B   1,B   0,B   7)     85.9360         0.014071   
    119. D(B   2,B   1,B   0,B   7)     42.9643         0.014071   
    120. D(B   5,B   1,B   0,B   6)     42.9564         0.014071   
    121. D(B   3,B   2,B   1,B   5)     11.7835         0.010000   
    122. D(B   8,B   2,B   1,B   0)    -52.8389         0.010000   
    123. D(B   4,B   2,B   1,B   7)     87.4178         0.010000   
    124. D(B   3,B   2,B   1,B   7)     80.9022         0.010000   
    125. D(B   4,B   2,B   1,B   0)     52.8626         0.010000   
    126. D(B   4,B   2,B   1,B   5)     18.2991         0.010000   
    127. D(B   3,B   2,B   1,B   0)     46.3470         0.010000   
    128. D(B   9,B   3,B   2,B   4)   -135.7543         0.010000   
    129. D(B   4,B   3,B   2,B   8)    103.4047         0.010000   
    130. D(B   9,B   3,B   2,B   1)   -127.1573         0.010000   
    131. D(B   4,B   3,B   2,B   9)    135.7543         0.010000   
    132. D(B  10,B   3,B   2,B   1)    -67.3159         0.010000   
    133. D(B   9,B   3,B   2,B   8)    -32.3496         0.010000   
    134. D(B   4,B   3,B   2,B   1)      8.5970         0.010000   
    135. D(B   5,B   4,B   3,B   2)    -43.0214         0.014058   
    136. D(B   5,B   4,B   2,B   9)    114.3611         0.010000   
    137. D(B   2,B   4,B   3,B   9)     42.9573         0.014058   
    138. D(B  10,B   4,B   3,B   2)    -85.9585         0.014058   
    139. D(B   5,B   4,B   2,B   3)    152.0134         0.010000   
    140. D(B   3,B   4,B   2,B   9)    -37.6523         0.010000   
    141. D(B   3,B   4,B   2,B   8)    -87.5985         0.010000   
    142. D(B   5,B   4,B   3,B   9)     -0.0641         0.014058   
    143. D(B   3,B   4,B   2,B   1)   -174.0639         0.010000   
    144. D(B   2,B   4,B   3,B  10)     85.9585         0.014058   
    145. D(B   5,B   4,B   2,B   8)     64.4149         0.010000   
    146. D(B   5,B   4,B   2,B   1)    -22.0504         0.010000   
    147. D(B   5,B   4,B   3,B  10)     42.9372         0.014058   
    148. D(B   6,B   5,B   4,B   2)    -80.9381         0.010000   
    149. D(B   1,B   5,B   4,B  10)     87.4259         0.010000   
    150. D(B   1,B   5,B   4,B   3)     52.8970         0.010000   
    151. D(B   0,B   5,B   4,B   2)     11.8315         0.010000   
    152. D(B   6,B   5,B   1,B   0)    -37.6752         0.010000   
    153. D(B   0,B   5,B   4,B  10)     80.9586         0.010000   
    154. D(B   4,B   5,B   1,B   2)    -22.0499         0.010000   
    155. D(B   1,B   5,B   0,B   7)    -75.9045         0.010000   
    156. D(B   4,B   5,B   1,B   0)   -174.1068         0.010000   
    157. D(B   0,B   5,B   4,B   3)     46.4297         0.010000   
    158. D(B   4,B   5,B   1,B   7)   -111.4288         0.010000   
    159. D(B   1,B   5,B   4,B   2)     18.2988         0.010000   
    160. D(B   6,B   5,B   1,B   2)    114.3816         0.010000   
    161. D(B   0,B   5,B   1,B   2)    152.0569         0.010000   
    162. D(B   4,B   5,B   0,B   1)      8.5339         0.010000   
    163. D(B   6,B   5,B   0,B   7)     59.8266         0.010000   
    164. D(B   0,B   5,B   1,B   7)     62.6780         0.010000   
    165. D(B   4,B   5,B   0,B   7)    -67.3706         0.010000   
    166. D(B   6,B   5,B   0,B   1)    135.7311         0.010000   
    167. D(B   1,B   5,B   0,B   6)   -135.7311         0.010000   
    168. D(B   4,B   5,B   0,B   6)   -127.1972         0.010000   
    169. D(B   0,B   6,B   5,B   4)    127.1736         0.010000   
    170. D(B   0,B   6,B   5,B   1)     32.3351         0.010000   
    171. D(B  11,B   6,B   0,B   5)     49.3409         0.010000   
    172. D(B   5,B   6,B   0,B   7)    -98.5934         0.010000   
    173. D(B  11,B   6,B   0,B   1)      0.0500         0.010000   
    174. D(B   5,B   6,B   0,B   1)    -49.2910         0.010000   
    175. D(B   7,B   6,B   0,B   5)     98.5934         0.010000   
    176. D(B   0,B   6,B   5,B  11)    135.7141         0.010000   
    177. D(B   7,B   6,B   0,B   1)     49.3024         0.010000   
    178. D(B   7,B   6,B   5,B  11)     75.9067         0.010000   
    179. D(B   7,B   6,B   5,B   4)     67.3662         0.010000   
    180. D(B   7,B   6,B   5,B   1)    -27.4724         0.010000   
    181. D(B   7,B   6,B   5,B   0)    -59.8074         0.010000   
    182. D(B   8,B   7,B   6,B   5)    -67.4260         0.010000   
    183. D(B   6,B   7,B   1,B   2)   -114.3739         0.010000   
    184. D(B   1,B   7,B   6,B   0)    -32.3517         0.010000   
    185. D(B   0,B   7,B   6,B   5)     59.8325         0.010000   
    186. D(B   8,B   7,B   1,B   2)     22.0360         0.010000   
    187. D(B   8,B   7,B   1,B   0)    174.0972         0.010000   
    188. D(B   1,B   7,B   6,B  11)    103.4270         0.010000   
    189. D(B   8,B   7,B   6,B   0)   -127.2585         0.010000   
    190. D(B   1,B   7,B   6,B   5)     27.4809         0.010000   
    191. D(B   6,B   7,B   1,B   0)     37.6873         0.010000   
    192. D(B   0,B   7,B   1,B   5)    -62.6856         0.010000   
    193. D(B   0,B   7,B   1,B   2)   -152.0612         0.010000   
    194. D(B   8,B   7,B   0,B   1)     -8.5573         0.010000   
    195. D(B   6,B   7,B   0,B   1)   -135.7191         0.010000   
    196. D(B   1,B   7,B   0,B   6)    135.7191         0.010000   
    197. D(B   1,B   7,B   0,B   5)     75.9143         0.010000   
    198. D(B   6,B   7,B   0,B   5)    -59.8048         0.010000   
    199. D(B   6,B   7,B   1,B   5)    -24.9984         0.010000   
    200. D(B   8,B   7,B   0,B   6)    127.1618         0.010000   
    201. D(B   0,B   7,B   6,B  11)    135.7786         0.010000   
    202. D(B   8,B   7,B   0,B   5)     67.3570         0.010000   
    203. D(B   9,B   8,B   7,B   6)     46.5248         0.010000   
    204. D(B   9,B   8,B   7,B   1)    -52.7686         0.010000   
    205. D(B   9,B   8,B   7,B   0)    -46.2825         0.010000   
    206. D(B   2,B   8,B   7,B  11)     87.4692         0.010000   
    207. D(B   2,B   8,B   7,B   6)     81.0121         0.010000   
    208. D(B   2,B   8,B   7,B   1)    -18.2812         0.010000   
    209. D(B   2,B   8,B   7,B   0)    -11.7951         0.010000   
    210. D(B   9,B   8,B   2,B   4)     87.6573         0.010000   
    211. D(B   9,B   8,B   2,B   3)     37.6988         0.010000   
    212. D(B   9,B   8,B   2,B   1)    174.1154         0.010000   
    213. D(B   7,B   8,B   2,B   9)   -152.0919         0.010000   
    214. D(B   7,B   8,B   2,B   4)    -64.4346         0.010000   
    215. D(B   7,B   8,B   2,B   3)   -114.3931         0.010000   
    216. D(B   7,B   8,B   2,B   1)     22.0235         0.010000   
    217. D(B  10,B   9,B   8,B   2)    -85.9295         0.014087   
    218. D(B   3,B   9,B   8,B  10)     42.9146         0.014087   
    219. D(B   3,B   9,B   8,B   2)    -43.0149         0.014087   
    220. D(B   2,B   9,B   8,B  10)     85.9295         0.014087   
    221. D(B   2,B   9,B   8,B   7)     42.8805         0.014087   
    222. D(B  10,B   9,B   3,B   2)     98.5976         0.010000   
    223. D(B   8,B   9,B   3,B  10)    -49.2364         0.010000   
    224. D(B   8,B   9,B   3,B   4)      0.0828         0.010000   
    225. D(B   8,B   9,B   3,B   2)     49.3612         0.010000   
    226. D(B   2,B   9,B   3,B  10)    -98.5976         0.010000   
    227. D(B   2,B   9,B   3,B   4)    -49.2784         0.010000   
    228. D(B  10,B   9,B   2,B   1)     67.3698         0.010000   
    229. D(B   8,B   9,B   2,B   4)   -103.3646         0.010000   
    230. D(B   8,B   9,B   2,B   3)   -135.6887         0.010000   
    231. D(B   8,B   9,B   2,B   1)     -8.5210         0.010000   
    232. D(B   3,B   9,B   8,B   7)     -0.1344         0.014087   
    233. D(B   3,B   9,B   2,B   8)    135.6887         0.010000   
    234. D(B   3,B   9,B   2,B   4)     32.3241         0.010000   
    235. D(B   3,B   9,B   2,B   1)    127.1677         0.010000   
    236. D(B   9,B  10,B   3,B   2)    -59.8171         0.010000   
    237. D(B   8,B  10,B   3,B   9)     32.3056         0.010000   
    238. D(B   8,B  10,B   3,B   4)   -103.4165         0.010000   
    239. D(B   8,B  10,B   3,B   2)    -27.5115         0.010000   
    240. D(B   4,B  10,B   3,B   9)    135.7221         0.010000   
    241. D(B   4,B  10,B   3,B   2)     75.9049         0.010000   
    242. D(B   8,B  10,B   9,B   3)   -135.7782         0.010000   
    243. D(B   8,B  10,B   9,B   2)    -75.9529         0.010000   
    244. D(B   4,B  10,B   9,B   8)    103.4290         0.010000   
    245. D(B   4,B  10,B   9,B   3)    -32.3492         0.010000   
    246. D(B   4,B  10,B   9,B   2)     27.4761         0.010000   
    247. D(B   3,B  10,B   9,B   8)    135.7782         0.010000   
    248. D(B   9,B  10,B   8,B   2)     62.6607         0.010000   
    249. D(B   4,B  10,B   8,B   9)    -87.6147         0.010000   
    250. D(B   4,B  10,B   8,B   7)     64.3815         0.010000   
    251. D(B   4,B  10,B   8,B   2)    -24.9540         0.010000   
    252. D(B   3,B  10,B   8,B   9)    -37.6357         0.010000   
    253. D(B   3,B  10,B   8,B   7)    114.3605         0.010000   
    254. D(B   3,B  10,B   8,B   2)     25.0251         0.010000   
    255. D(B   9,B  10,B   4,B   3)     37.6786         0.010000   
    256. D(B   3,B  10,B   9,B   2)     59.8253         0.010000   
    257. D(B   9,B  10,B   4,B   2)    -24.9984         0.010000   
    258. D(B   8,B  10,B   4,B   5)    -64.4230         0.010000   
    259. D(B   8,B  10,B   4,B   3)     87.6383         0.010000   
    260. D(B   8,B  10,B   4,B   2)     24.9613         0.010000   
    261. D(B   3,B  10,B   4,B   5)   -152.0613         0.010000   
    262. D(B   3,B  10,B   4,B   2)    -62.6770         0.010000   
    263. D(B   9,B  10,B   3,B   4)   -135.7221         0.010000   
    264. D(B   6,B  11,B  10,B   8)     52.9621         0.010000   
    265. D(B   6,B  11,B  10,B   3)    -46.2955         0.010000   
    266. D(B   5,B  11,B  10,B   9)     80.9985         0.010000   
    267. D(B   5,B  11,B  10,B   8)     87.4631         0.010000   
    268. D(B   5,B  11,B  10,B   3)    -11.7945         0.010000   
    269. D(B   6,B  11,B   7,B   8)   -174.1149         0.010000   
    270. D(B   6,B  11,B   7,B   1)    -87.6231         0.010000   
    271. D(B   5,B  11,B   7,B   8)   -111.4541         0.010000   
    272. D(B   5,B  11,B   7,B   6)     62.6608         0.010000   
    273. D(B   5,B  11,B   7,B   1)    -24.9623         0.010000   
    274. D(B   5,B  11,B   7,B   0)     25.0188         0.010000   
    275. D(B  10,B  11,B   6,B   5)     42.9021         0.014089   
    276. D(B  10,B  11,B   6,B   0)     -0.1016         0.014089   
    277. D(B   7,B  11,B   6,B   5)     85.9322         0.014089   
    278. D(B   7,B  11,B   6,B   0)     42.9285         0.014089   
    279. D(B   5,B  11,B   6,B   7)    -85.9322         0.014089   
    280. D(B   6,B  11,B   7,B   0)    -37.6420         0.010000   
    281. D(B   5,B  11,B   6,B   0)    -43.0037         0.014089   
    282. D(B   7,B  11,B   5,B   6)    -62.6956         0.010000   
    283. D(B   7,B  11,B   5,B   4)    111.4086         0.010000   
    284. D(B   5,B  11,B  10,B   4)    -18.2828         0.010000   
    285. D(B   7,B  11,B   5,B   1)     24.9499         0.010000   
    286. D(B   7,B  11,B   5,B   0)    -25.0084         0.010000   
    287. D(B   6,B  11,B   5,B   4)    174.1042         0.010000   
    288. D(B   6,B  11,B  10,B   4)    -52.7838         0.010000   
    289. D(B   6,B  11,B   5,B   1)     87.6454         0.010000   
    290. D(B   6,B  11,B   5,B   0)     37.6871         0.010000   
    -----------------------------------------------------------------

Number of atoms                         .... 12
Number of degrees of freedom            .... 290


         *************************************************************
         *                GEOMETRY OPTIMIZATION CYCLE   1            *
         *************************************************************
---------------------------------
CARTESIAN COORDINATES (ANGSTROEM)
---------------------------------
  B      1.930200    0.586376    0.591487
  B      0.579301    1.089126    1.090652
  B     -0.980252    0.780222    0.777611
  B     -1.929676   -0.586216    0.592527
  B     -0.578516   -1.088988    1.091357
  B      0.980759   -0.780164    0.776725
  B      1.925886   -0.598317   -0.592651
  B      0.984894    0.773952   -0.777007
  B     -0.572725    1.092166   -1.091336
  B     -1.926477    0.598406   -0.591430
  B     -0.985301   -0.774133   -0.776388
  B      0.571906   -1.092427   -1.091547

----------------------------
CARTESIAN COORDINATES (A.U.)
----------------------------
  NO LB      ZA    FRAG     MASS         X           Y           Z
   0 B     5.0000    0    10.810    3.647549    1.108089    1.117748
   1 B     5.0000    0    10.810    1.094720    2.058149    2.061034
   2 B     5.0000    0    10.810   -1.852407    1.474406    1.469472
   3 B     5.0000    0    10.810   -3.646560   -1.107787    1.119714
   4 B     5.0000    0    10.810   -1.093237   -2.057890    2.062366
   5 B     5.0000    0    10.810    1.853366   -1.474297    1.467798
   6 B     5.0000    0    10.810    3.639398   -1.130655   -1.119948
   7 B     5.0000    0    10.810    1.861180    1.462557   -1.468331
   8 B     5.0000    0    10.810   -1.082293    2.063894   -2.062326
   9 B     5.0000    0    10.810   -3.640514    1.130823   -1.117640
  10 B     5.0000    0    10.810   -1.861949   -1.462900   -1.467161
  11 B     5.0000    0    10.810    1.080746   -2.064389   -2.062725

--------------------------------
INTERNAL COORDINATES (ANGSTROEM)
--------------------------------
 B      0   0   0     0.000000000000     0.00000000     0.00000000
 B      1   0   0     1.525401857530     0.00000000     0.00000000
 B      2   1   0     1.620376563181   136.57785925     0.00000000
 B      3   2   1     1.674161042895   136.28379418    46.34703246
 B      4   3   2     1.525531528944    74.36911927     8.59695996
 B      5   4   3     1.620402367816   136.55076574   316.97861477
 B      6   5   4     1.673776193629   136.29685118   313.66006702
 B      1   2   3     1.673787352690    74.36258873    42.96425139
 B      8   1   2     1.620567612332   136.33775622   351.44271197
 B      9   8   1     1.525237675750   136.54813823   313.71752188
 B      4   3   2     1.673644806045    82.07196168   292.68413329
 B      7   6   5     1.525222957449    74.40372720   351.45947592

---------------------------
INTERNAL COORDINATES (A.U.)
---------------------------
 B      0   0   0     0.000000000000     0.00000000     0.00000000
 B      1   0   0     2.882591754907     0.00000000     0.00000000
 B      2   1   0     3.062067938237   136.57785925     0.00000000
 B      3   2   1     3.163705875151   136.28379418    46.34703246
 B      4   3   2     2.882836798367    74.36911927     8.59695996
 B      5   4   3     3.062116701930   136.55076574   316.97861477
 B      6   5   4     3.162978615436   136.29685118   313.66006702
 B      1   2   3     3.162999703006    74.36258873    42.96425139
 B      8   1   2     3.062428968810   136.33775622   351.44271197
 B      9   8   1     2.882281496306   136.54813823   313.71752188
 B      4   3   2     3.162730328886    82.07196168   292.68413329
 B      7   6   5     2.882253682748    74.40372720   351.45947592

---------------------
BASIS SET INFORMATION
---------------------
There are 1 groups of distinct atoms

 Group   1 Type B   : 11s6p1d contracted to 5s3p1d pattern {62111/411/1}

Atom   0B    basis set group =>   1
Atom   1B    basis set group =>   1
Atom   2B    basis set group =>   1
Atom   3B    basis set group =>   1
Atom   4B    basis set group =>   1
Atom   5B    basis set group =>   1
Atom   6B    basis set group =>   1
Atom   7B    basis set group =>   1
Atom   8B    basis set group =>   1
Atom   9B    basis set group =>   1
Atom  10B    basis set group =>   1
Atom  11B    basis set group =>   1
---------------------------------
AUXILIARY/J BASIS SET INFORMATION
---------------------------------
There are 1 groups of distinct atoms

 Group   1 Type B   : 8s3p3d contracted to 6s3p3d pattern {311111/111/111}

Atom   0B    basis set group =>   1
Atom   1B    basis set group =>   1
Atom   2B    basis set group =>   1
Atom   3B    basis set group =>   1
Atom   4B    basis set group =>   1
Atom   5B    basis set group =>   1
Atom   6B    basis set group =>   1
Atom   7B    basis set group =>   1
Atom   8B    basis set group =>   1
Atom   9B    basis set group =>   1
Atom  10B    basis set group =>   1
Atom  11B    basis set group =>   1


           ************************************************************
           *        Program running with 8 parallel MPI-processes     *
           *              working on a common directory               *
           ************************************************************
------------------------------------------------------------------------------
                             ORCA STARTUP CALCULATIONS
                           -- RI-GTO INTEGRALS CHOSEN --
------------------------------------------------------------------------------
------------------------------------------------------------------------------
                   ___                                                        
                  /   \      - P O W E R E D   B Y -                         
                 /     \                                                     
                 |  |  |   _    _      __       _____    __    __             
                 |  |  |  | |  | |    /  \     |  _  \  |  |  /  |          
                  \  \/   | |  | |   /    \    | | | |  |  | /  /          
                 / \  \   | |__| |  /  /\  \   | |_| |  |  |/  /          
                |  |  |   |  __  | /  /__\  \  |    /   |      \           
                |  |  |   | |  | | |   __   |  |    \   |  |\   \          
                \     /   | |  | | |  |  |  |  | |\  \  |  | \   \       
                 \___/    |_|  |_| |__|  |__|  |_| \__\ |__|  \__/        
                                                                              
                      - O R C A' S   B I G   F R I E N D -                    
                                      &                                       
                       - I N T E G R A L  F E E D E R -                       
                                                                              
 v1 FN, 2020, v2 2021, v3 2022-2024                                           
------------------------------------------------------------------------------


----------------------
SHARK INTEGRAL PACKAGE
----------------------

Number of atoms                             ...     12
Number of basis functions                   ...    228
Number of shells                            ...    108
Maximum angular momentum                    ...      2
Integral batch strategy                     ... SHARK/LIBINT Hybrid
RI-J (if used) integral strategy            ... SPLIT-RIJ (Revised 2003 algorithm where possible)
Printlevel                                  ...      1
Contraction scheme used                     ... SEGMENTED contraction
Prescreening option                         ... SCHWARTZ
   Thresh                                   ... 2.500e-11
   Tcut                                     ... 2.500e-12
   Tpresel                                  ... 2.500e-12 
Coulomb Range Separation                    ... NOT USED
Exchange Range Separation                   ... NOT USED
Multipole approximations                    ... NOT USED
Finite Nucleus Model                        ... NOT USED
CABS basis                                  ... NOT available
Auxiliary Coulomb fitting basis             ... AVAILABLE
   # of basis functions in Aux-J            ...    360
   # of shells in Aux-J                     ...    144
   Maximum angular momentum in Aux-J        ...      2
Auxiliary J/K fitting basis                 ... NOT available
Auxiliary Correlation fitting basis         ... NOT available
Auxiliary 'external' fitting basis          ... NOT available

Checking pre-screening integrals            ... done (  0.0 sec) Dimension = 108
   => SHARK Basis and OBASIS are compatible. Storing Pre-screening
Shell pair information
Shell pair cut-off parameter TPreSel        ...   2.5e-12
Total number of shell pairs                 ...      5886
Shell pairs after pre-screening             ...      5702
Total number of primitive shell pairs       ...     23700
Primitive shell pairs kept                  ...     16978
          la=0 lb=0:   1662 shell pairs
          la=1 lb=0:   2152 shell pairs
          la=1 lb=1:    666 shell pairs
          la=2 lb=0:    712 shell pairs
          la=2 lb=1:    432 shell pairs
          la=2 lb=2:     78 shell pairs

Checking whether 4 symmetric matrices of dimension 228 fit in memory
:Max Core in MB      =   1500.00
 MB in use           =      7.44
 MB left             =   1492.56
 MB needed           =      0.80
 Data fit in memory  = YES
Calculating RI/J V-Matrix + Cholesky decomp.... done (  0.0 sec)
Calculating Nuclear repulsion               ... done (  0.0 sec) ENN=    381.731248161400 Eh

Diagonalization of the overlap matrix:
Smallest eigenvalue                        ... 3.054e-06
Time for diagonalization                   ...    0.002 sec
Threshold for overlap eigenvalues          ... 1.000e-07
Number of eigenvalues below threshold      ... 0
Time for construction of square roots      ...    0.004 sec
Total time needed                          ...    0.007 sec

-------------------
DFT GRID GENERATION
-------------------

General Integration Accuracy     IntAcc      ... 4.388
Radial Grid Type                 RadialGrid  ... OptM3 with GC (2021)
Angular Grid (max. ang.)         AngularGrid ... 4 (Lebedev-302)
Angular grid pruning method      GridPruning ... 4 (adaptive)
Weight generation scheme         WeightScheme... mBecke (2022)
Basis function cutoff            BFCut       ... 1.0000e-11
Integration weight cutoff        WCut        ... 1.0000e-14
Partially contracted basis set               ... off
Rotationally invariant grid construction     ... off
Angular grids for H and He will be reduced by one unit

Total number of grid points                  ...    69970
Total number of batches                      ...     1100
Average number of points per batch           ...       63
Average number of grid points per atom       ...     5831
Grids setup in   0.3 sec
Initializing property integral containers    ... done (  0.0 sec)

SHARK setup successfully completed in   0.5 seconds

Maximum memory used throughout the entire STARTUP-calculation: 20.5 MB


           ************************************************************
           *        Program running with 8 parallel MPI-processes     *
           *              working on a common directory               *
           ************************************************************
-------------------------------------------------------------------------------
                                 ORCA GUESS
                   Start orbitals & Density for SCF / CASSCF
-------------------------------------------------------------------------------

------------
SCF SETTINGS
------------
Hamiltonian:
 Density Functional     Method          .... DFT(GTOs)
  Functional kind                       .... Exchange
  Functional name                       .... Re-regularized SCAN exchange by Furness et al
  Functional family                     .... MGGA
  Functional refs                              
    [ 0] J. W. Furness, A. D. Kaplan, J. Ning, J. P. Perdew, and J. Sun.,  J. Phys. Chem. Lett. 11, 8208-8215 (2020), doi: 10.1021/acs.jpclett.0c02405
    [ 1] J. W. Furness, A. D. Kaplan, J. Ning, J. P. Perdew, and J. Sun.,  J. Phys. Chem. Lett. 11, 9248-9248 (2020), doi: 10.1021/acs.jpclett.0c03077
  Functional external parameters        .... 6
    Parameter  0 _c1        =  6.670000e-01 : c1 parameter        
    Parameter  1 _c2        =  8.000000e-01 : c2 parameter        
    Parameter  2 _d         =  1.240000e+00 : d parameter         
    Parameter  3 _k1        =  6.500000e-02 : k1 parameter        
    Parameter  4 _eta       =  1.000000e-03 : eta parameter       
    Parameter  5 _dp2       =  3.610000e-01 : dp2 parameter       
  Functional kind                       .... Correlation
  Functional name                       .... Re-regularized SCAN correlation by Furness et al
  Functional family                     .... MGGA
  Functional refs                              
    [ 0] J. W. Furness, A. D. Kaplan, J. Ning, J. P. Perdew, and J. Sun.,  J. Phys. Chem. Lett. 11, 8208-8215 (2020), doi: 10.1021/acs.jpclett.0c02405
    [ 1] J. W. Furness, A. D. Kaplan, J. Ning, J. P. Perdew, and J. Sun.,  J. Phys. Chem. Lett. 11, 9248-9248 (2020), doi: 10.1021/acs.jpclett.0c03077
  Functional external parameters        .... 1
    Parameter  0 _eta       =  1.000000e-03 : Regularization parameter
 Gradients option       PostSCFGGA      .... off
 RI-approximation to the Coulomb term is turned on
   Number of AuxJ basis functions       .... 360


General Settings:
 Integral files         IntName         .... b12_hexagonal_prism_m5_spinopt
 Hartree-Fock type      HFTyp           .... UHF
 Total Charge           Charge          ....    0
 Multiplicity           Mult            ....    5
 Number of Electrons    NEL             ....   60
 Basis Dimension        Dim             ....  228
 Nuclear Repulsion      ENuc            ....    381.7312481614 Eh

Convergence Acceleration:
 AO-DIIS                CNVDIIS         .... on
   Start iteration      DIISMaxIt       ....    12
   Startup error        DIISStart       ....  0.200000
   # of expansion vecs  DIISMaxEq       ....     5
   Bias factor          DIISBfac        ....   1.050
   Max. coefficient     DIISMaxC        ....  10.000
 MO-DIIS                CNVKDIIS        .... off
 Trust-Rad. Augm. Hess. CNVTRAH         .... auto
   Auto Start mean grad. ratio tolernc. ....  1.125000
   Auto Start start iteration           ....    50
   Auto Start num. interpolation iter.  ....    10
   Max. Number of Micro iterations      ....    24
   Max. Number of Macro iterations      .... Maxiter - #DIIS iter
   Number of Davidson start vectors     ....     2
   Converg. threshold    (grad. norm)   ....   1.000e-05
   Grad. Scal. Fac. for Micro threshold ....   0.100
   Minimum threshold for Micro iter.    ....   1.000e-02
   NR start threshold (gradient norm)   ....   1.000e-04
   Initial trust radius                 ....   0.400
   Minimum AH scaling param. (alpha)    ....   1.000
   Maximum AH scaling param. (alpha)    .... 1000.000
   Quad. conv. algorithm                .... NR
   White noise on init. David. guess    .... on
   Maximum white noise                  ....   0.010
   Pseudo random numbers                .... off
   Inactive MOs                         .... canonical
   Orbital update algorithm             .... Taylor
   Preconditioner                       .... Diag
   Full preconditioner red. dimension   ....   250
   COSX micro iterations for RIJONX calc.... off
 SOSCF                 CNVSOSCF           .... on
   Start iteration     SOSCFMaxIt         ....   150
   Startup grad/error  SOSCFStart         ....  0.003300
   Hessian update      SOSCFHessUp        .... L-BFGS
   Autom. constraints  SOSCFAutoConstrain .... off
 Level Shifting         CNVShift        .... on
   Level shift para.    LevelShift      ....    0.2500
   Turn off err/grad.   ShiftErr        ....    0.0010
 Zerner damping         CNVZerner       .... off
 Static damping         CNVDamp         .... on
   Fraction old density DampFac         ....    0.7000
   Max. Damping (<1)    DampMax         ....    0.9800
   Min. Damping (>=0)   DampMin         ....    0.0000
   Turn off err/grad.   DampErr         ....    0.1000

SCF Procedure:
 Maximum # iterations   MaxIter         ....   125
 SCF integral mode      SCFMode         .... Direct
   Integral package                     .... SHARK and LIBINT hybrid scheme
 Reset frequency        DirectResetFreq ....    20
 Integral Threshold     Thresh          ....  2.500e-11 Eh
 Primitive CutOff       TCut            ....  2.500e-12 Eh

Convergence Tolerance:
 Convergence Check Mode ConvCheckMode   .... Total+1el-Energy
 Convergence forced     ConvForced      .... 0
 Energy Change          TolE            ....  1.000e-08 Eh
 1-El. energy change                    ....  1.000e-05 Eh
 Orbital Gradient       TolG            ....  1.000e-05
 Orbital Rotation angle TolX            ....  1.000e-05
 DIIS Error             TolErr          ....  5.000e-07

------------------------------
INITIAL GUESS: MODEL POTENTIAL
------------------------------
Loading Hartree-Fock densities                     ... done
Calculating cut-offs                               ... done
Initializing the effective Hamiltonian             ... done
Setting up the integral package (SHARK)            ... done
Starting the Coulomb interaction                   ... done (   0.0 sec)
Making the grid                                    ... done (   0.1 sec)
Mapping shells                                     ... done
Starting the XC term evaluation                    ... done (   0.1 sec)
  promolecular density results
     # of electrons  =     60.010783593
     EX              =    -45.853047489
     EC              =     -1.915077619
     EX+EC           =    -47.768125107
Transforming the Hamiltonian                       ... done (   0.0 sec)
Diagonalizing the Hamiltonian                      ... done (   0.0 sec)
Back transforming the eigenvectors                 ... done (   0.0 sec)
Now organizing SCF variables                       ... done
                      ------------------
                      INITIAL GUESS DONE (   0.2 sec)
                      ------------------
             **** ENERGY FILE WAS UPDATED (b12_hexagonal_prism_m5_spinopt.en.tmp) ****
Finished Guess after   0.3 sec
Maximum memory used throughout the entire GUESS-calculation: 10.9 MB


           ************************************************************
           *        Program running with 8 parallel MPI-processes     *
           *              working on a common directory               *
           ************************************************************

-------------------------------------------------------------------------------------------
                                      ORCA LEAN-SCF
                              memory conserving SCF solver
-------------------------------------------------------------------------------------------

----------------------------------------D-I-I-S--------------------------------------------
Iteration    Energy (Eh)           Delta-E    RMSDP     MaxDP     DIISErr   Damp  Time(sec)
-------------------------------------------------------------------------------------------
               ***  Starting incremental Fock matrix formation  ***
    1    -297.1930057792538946     0.00e+00  1.34e-01  1.75e+00  6.89e-02  0.700   0.8
Warning: op=0 Small HOMO/LUMO gap (  -0.008) - skipping pre-diagonalization
         Will do a full diagonalization
    2    -297.4338955447806256    -2.41e-01  9.63e-02  1.31e+00  3.30e-02  0.700   0.8
                               ***Turning on AO-DIIS***
    3    -297.5211102799862601    -8.72e-02  4.57e-02  7.03e-01  1.31e-02  0.700   0.8
    4    -297.5700844995352554    -4.90e-02  8.26e-02  1.23e+00  7.29e-03  0.000   0.8
    5    -297.6851287526826582    -1.15e-01  9.55e-03  1.22e-01  5.23e-03  0.000   0.8
                              *** Initializing SOSCF ***
---------------------------------------S-O-S-C-F--------------------------------------
Iteration    Energy (Eh)           Delta-E    RMSDP     MaxDP     MaxGrad    Time(sec)
--------------------------------------------------------------------------------------
    6    -297.6886481816130754    -3.52e-03  4.70e-03  5.14e-02  1.86e-03     0.8
               *** Restarting incremental Fock matrix formation ***
    7    -297.6895078037006215    -8.60e-04  3.08e-03  4.49e-02  5.20e-03     0.8
    8    -297.6901010717324425    -5.93e-04  7.70e-03  1.23e-01  3.47e-03     0.6
    9    -297.6907475718996920    -6.47e-04  4.11e-03  6.54e-02  1.29e-03     0.7
   10    -297.6907448218531727     2.75e-06  4.87e-03  6.30e-02  2.30e-03     0.6
   11    -297.6908288889776486    -8.41e-05  2.42e-03  3.70e-02  6.60e-04     0.6
   12    -297.6908303993308209    -1.51e-06  1.54e-03  1.67e-02  6.12e-04     0.6
   13    -297.6908479488301964    -1.75e-05  4.81e-04  6.37e-03  1.04e-04     0.6
   14    -297.6908480837701063    -1.35e-07  7.43e-05  1.20e-03  9.99e-05     0.7
   15    -297.6908485986664346    -5.15e-07  3.92e-04  7.21e-03  9.58e-06     0.6
   16    -297.6908486092346493    -1.06e-08  8.80e-04  1.54e-02  5.54e-06     0.6
   17    -297.6908486060560790     3.18e-09  1.34e-04  2.36e-03  1.45e-05     0.6
                 **** Energy Check signals convergence ****

               *****************************************************
               *                     SUCCESS                       *
               *           SCF CONVERGED AFTER  17 CYCLES          *
               *****************************************************

             **** ENERGY FILE WAS UPDATED (b12_hexagonal_prism_m5_spinopt.en.tmp) ****

----------------
TOTAL SCF ENERGY
----------------

Total Energy       :       -297.69084861223132 Eh           -8100.57982 eV

Components:
Nuclear Repulsion  :        381.73124816139978 Eh           10387.43535 eV
Electronic Energy  :       -679.42209677363098 Eh          -18488.01517 eV
One Electron Energy:      -1151.65127543622907 Eh          -31338.02440 eV
Two Electron Energy:        472.22917866259803 Eh           12850.00923 eV

Virial components:
Potential Energy   :       -594.39779539293886 Eh          -16174.38630 eV
Kinetic Energy     :        296.70694678070754 Eh            8073.80649 eV
Virial Ratio       :          2.00331607278562

DFT components:
N(Alpha)           :       31.999910424753 electrons
N(Beta)            :       27.999968945956 electrons
N(Total)           :       59.999879370709 electrons
E(X)               :      -46.894013719648 Eh       
E(C)               :       -1.907582558705 Eh       
E(XC)              :      -48.801596278353 Eh       

---------------
SCF CONVERGENCE
---------------

  Last Energy change         ...   -3.1786e-09  Tolerance :   1.0000e-08
  Last MAX-Density change    ...    2.3564e-03  Tolerance :   1.0000e-07
  Last RMS-Density change    ...    1.3444e-04  Tolerance :   5.0000e-09
  Last DIIS Error            ...    1.8609e-03  Tolerance :   5.0000e-07
  Last Orbital Gradient      ...    1.4476e-05  Tolerance :   1.0000e-05
  Last Orbital Rotation      ...    2.2122e-05  Tolerance :   1.0000e-05


----------------------
UHF SPIN CONTAMINATION
----------------------

Warning: in a DFT calculation there is little theoretical justification to 
         calculate <S**2> as in Hartree-Fock theory. We will do it anyways
         but you should keep in mind that the values have only limited relevance

Expectation value of <S**2>     :     6.047712
Ideal value S*(S+1) for S=2.0   :     6.000000
Deviation                       :     0.047712

----------------
ORBITAL ENERGIES
----------------
                 SPIN UP ORBITALS
  NO   OCC          E(Eh)            E(eV) 
   0   1.0000      -6.686502      -181.9490 
   1   1.0000      -6.686477      -181.9483 
   2   1.0000      -6.685917      -181.9331 
   3   1.0000      -6.685911      -181.9329 
   4   1.0000      -6.685290      -181.9160 
   5   1.0000      -6.685250      -181.9149 
   6   1.0000      -6.685200      -181.9136 
   7   1.0000      -6.685164      -181.9126 
   8   1.0000      -6.647495      -180.8875 
   9   1.0000      -6.647109      -180.8770 
  10   1.0000      -6.645282      -180.8273 
  11   1.0000      -6.644896      -180.8168 
  12   1.0000      -0.803864       -21.8742 
  13   1.0000      -0.719165       -19.5695 
  14   1.0000      -0.593752       -16.1568 
  15   1.0000      -0.592180       -16.1140 
  16   1.0000      -0.537080       -14.6147 
  17   1.0000      -0.467248       -12.7145 
  18   1.0000      -0.466393       -12.6912 
  19   1.0000      -0.394028       -10.7221 
  20   1.0000      -0.374942       -10.2027 
  21   1.0000      -0.373231       -10.1561 
  22   1.0000      -0.357638        -9.7318 
  23   1.0000      -0.346020        -9.4157 
  24   1.0000      -0.344887        -9.3849 
  25   1.0000      -0.324460        -8.8290 
  26   1.0000      -0.306206        -8.3323 
  27   1.0000      -0.254769        -6.9326 
  28   1.0000      -0.254099        -6.9144 
  29   1.0000      -0.251464        -6.8427 
  30   1.0000      -0.189086        -5.1453 
  31   1.0000      -0.134527        -3.6607 
  32   0.0000      -0.131820        -3.5870 
  33   0.0000      -0.095828        -2.6076 
  34   0.0000      -0.087560        -2.3826 
  35   0.0000      -0.086104        -2.3430 
  36   0.0000      -0.084869        -2.3094 
  37   0.0000      -0.041326        -1.1245 
  38   0.0000      -0.034277        -0.9327 
  39   0.0000      -0.033313        -0.9065 
  40   0.0000      -0.005424        -0.1476 
  41   0.0000       0.043452         1.1824 
  42   0.0000       0.050192         1.3658 

                 SPIN DOWN ORBITALS
  NO   OCC          E(Eh)            E(eV) 
   0   1.0000      -6.683506      -181.8674 
   1   1.0000      -6.683468      -181.8664 
   2   1.0000      -6.683306      -181.8620 
   3   1.0000      -6.683252      -181.8605 
   4   1.0000      -6.680286      -181.7798 
   5   1.0000      -6.680260      -181.7791 
   6   1.0000      -6.679729      -181.7647 
   7   1.0000      -6.679720      -181.7644 
   8   1.0000      -6.641642      -180.7283 
   9   1.0000      -6.641251      -180.7176 
  10   1.0000      -6.638946      -180.6549 
  11   1.0000      -6.638555      -180.6443 
  12   1.0000      -0.790631       -21.5142 
  13   1.0000      -0.711793       -19.3689 
  14   1.0000      -0.576689       -15.6925 
  15   1.0000      -0.573079       -15.5943 
  16   1.0000      -0.522372       -14.2145 
  17   1.0000      -0.457752       -12.4561 
  18   1.0000      -0.453835       -12.3495 
  19   1.0000      -0.364878        -9.9288 
  20   1.0000      -0.364204        -9.9105 
  21   1.0000      -0.345296        -9.3960 
  22   1.0000      -0.336021        -9.1436 
  23   1.0000      -0.334100        -9.0913 
  24   1.0000      -0.333057        -9.0629 
  25   1.0000      -0.309575        -8.4240 
  26   1.0000      -0.255667        -6.9571 
  27   1.0000      -0.242912        -6.6100 
  28   0.0000      -0.195718        -5.3258 
  29   0.0000      -0.194011        -5.2793 
  30   0.0000      -0.119324        -3.2470 
  31   0.0000      -0.076843        -2.0910 
  32   0.0000      -0.074864        -2.0372 
  33   0.0000      -0.056408        -1.5349 
  34   0.0000      -0.036620        -0.9965 
  35   0.0000      -0.034976        -0.9517 
  36   0.0000      -0.030948        -0.8421 
  37   0.0000      -0.014192        -0.3862 
  38   0.0000      -0.013237        -0.3602 
*Only the first 10 virtual orbitals were printed.

                    ********************************
                    * MULLIKEN POPULATION ANALYSIS *
                    ********************************

--------------------------------------------
MULLIKEN ATOMIC CHARGES AND SPIN POPULATIONS
--------------------------------------------
   0 B :    0.256142    0.886702
   1 B :   -0.531401    0.381047
   2 B :    0.275698   -0.262211
   3 B :    0.261649    0.864320
   4 B :   -0.533848    0.387429
   5 B :    0.272647   -0.256381
   6 B :    0.255703    0.885381
   7 B :    0.273017   -0.256271
   8 B :   -0.534099    0.387321
   9 B :    0.260161    0.863839
  10 B :    0.276003   -0.261998
  11 B :   -0.531672    0.380823
Sum of atomic charges         :    0.0000000
Sum of atomic spin populations:    4.0000000

-----------------------------------------------------
MULLIKEN REDUCED ORBITAL CHARGES AND SPIN POPULATIONS
-----------------------------------------------------
CHARGE
  0 B s       :     2.343665  s :     2.343665
      pz      :     0.670197  p :     2.357283
      px      :     1.004557
      py      :     0.682528
      dz2     :     0.008510  d :     0.042911
      dxz     :     0.010008
      dyz     :     0.003733
      dx2y2   :     0.009781
      dxy     :     0.010879

  1 B s       :     3.601258  s :     3.601258
      pz      :     0.455924  p :     1.896890
      px      :     0.958254
      py      :     0.482712
      dz2     :     0.007261  d :     0.033254
      dxz     :     0.007588
      dyz     :     0.003353
      dx2y2   :     0.007232
      dxy     :     0.007819

  2 B s       :     2.528270  s :     2.528270
      pz      :     0.651200  p :     2.154461
      px      :     0.842721
      py      :     0.660541
      dz2     :     0.009443  d :     0.041571
      dxz     :     0.006888
      dyz     :     0.008251
      dx2y2   :     0.009970
      dxy     :     0.007020

  3 B s       :     2.339765  s :     2.339765
      pz      :     0.672457  p :     2.355776
      px      :     0.998934
      py      :     0.684386
      dz2     :     0.008521  d :     0.042809
      dxz     :     0.009972
      dyz     :     0.003733
      dx2y2   :     0.009730
      dxy     :     0.010854

  4 B s       :     3.597205  s :     3.597205
      pz      :     0.457319  p :     1.903466
      px      :     0.960721
      py      :     0.485426
      dz2     :     0.007259  d :     0.033177
      dxz     :     0.007575
      dyz     :     0.003318
      dx2y2   :     0.007221
      dxy     :     0.007805

  5 B s       :     2.531484  s :     2.531484
      pz      :     0.651416  p :     2.154342
      px      :     0.842846
      py      :     0.660080
      dz2     :     0.009479  d :     0.041527
      dxz     :     0.006880
      dyz     :     0.008208
      dx2y2   :     0.009950
      dxy     :     0.007010

  6 B s       :     2.344030  s :     2.344030
      pz      :     0.670182  p :     2.357363
      px      :     1.004296
      py      :     0.682885
      dz2     :     0.008512  d :     0.042904
      dxz     :     0.009979
      dyz     :     0.003762
      dx2y2   :     0.009791
      dxy     :     0.010860

  7 B s       :     2.530483  s :     2.530483
      pz      :     0.651321  p :     2.154960
      px      :     0.841644
      py      :     0.661995
      dz2     :     0.009482  d :     0.041540
      dxz     :     0.006862
      dyz     :     0.008229
      dx2y2   :     0.009939
      dxy     :     0.007028

  8 B s       :     3.597219  s :     3.597219
      pz      :     0.457180  p :     1.903703
      px      :     0.961486
      py      :     0.485037
      dz2     :     0.007262  d :     0.033176
      dxz     :     0.007582
      dyz     :     0.003305
      dx2y2   :     0.007184
      dxy     :     0.007843

  9 B s       :     2.341565  s :     2.341565
      pz      :     0.672211  p :     2.355481
      px      :     0.998816
      py      :     0.684454
      dz2     :     0.008512  d :     0.042793
      dxz     :     0.009947
      dyz     :     0.003754
      dx2y2   :     0.009738
      dxy     :     0.010842

 10 B s       :     2.526947  s :     2.526947
      pz      :     0.651875  p :     2.155462
      px      :     0.841365
      py      :     0.662222
      dz2     :     0.009448  d :     0.041588
      dxz     :     0.006875
      dyz     :     0.008275
      dx2y2   :     0.009953
      dxy     :     0.007037

 11 B s       :     3.601259  s :     3.601259
      pz      :     0.455625  p :     1.897160
      px      :     0.959189
      py      :     0.482345
      dz2     :     0.007255  d :     0.033254
      dxz     :     0.007603
      dyz     :     0.003339
      dx2y2   :     0.007196
      dxy     :     0.007861


SPIN
  0 B s       :     0.420429  s :     0.420429
      pz      :     0.072586  p :     0.467812
      px      :     0.317759
      py      :     0.077467
      dz2     :    -0.000031  d :    -0.001539
      dxz     :    -0.001008
      dyz     :     0.000533
      dx2y2   :    -0.000726
      dxy     :    -0.000306

  1 B s       :     0.060393  s :     0.060393
      pz      :     0.156221  p :     0.319789
      px      :    -0.017504
      py      :     0.181072
      dz2     :     0.000167  d :     0.000865
      dxz     :     0.000701
      dyz     :    -0.000025
      dx2y2   :    -0.000621
      dxy     :     0.000643

  2 B s       :    -0.290773  s :    -0.290773
      pz      :     0.048750  p :     0.025150
      px      :    -0.079812
      py      :     0.056213
      dz2     :     0.001687  d :     0.003412
      dxz     :     0.000700
      dyz     :    -0.000180
      dx2y2   :     0.000404
      dxy     :     0.000802

  3 B s       :     0.432831  s :     0.432831
      pz      :     0.068372  p :     0.432800
      px      :     0.291835
      py      :     0.072593
      dz2     :     0.000037  d :    -0.001311
      dxz     :    -0.000990
      dyz     :     0.000555
      dx2y2   :    -0.000626
      dxy     :    -0.000287

  4 B s       :     0.063842  s :     0.063842
      pz      :     0.158541  p :     0.322914
      px      :    -0.020124
      py      :     0.184497
      dz2     :     0.000173  d :     0.000672
      dxz     :     0.000628
      dyz     :    -0.000031
      dx2y2   :    -0.000661
      dxy     :     0.000563

  5 B s       :    -0.278111  s :    -0.278111
      pz      :     0.047720  p :     0.018171
      px      :    -0.084406
      py      :     0.054858
      dz2     :     0.001739  d :     0.003559
      dxz     :     0.000740
      dyz     :    -0.000206
      dx2y2   :     0.000442
      dxy     :     0.000845

  6 B s       :     0.419777  s :     0.419777
      pz      :     0.072613  p :     0.467132
      px      :     0.315610
      py      :     0.078910
      dz2     :    -0.000028  d :    -0.001528
      dxz     :    -0.000993
      dyz     :     0.000520
      dx2y2   :    -0.000716
      dxy     :    -0.000311

  7 B s       :    -0.277746  s :    -0.277746
      pz      :     0.047711  p :     0.017912
      px      :    -0.083766
      py      :     0.053968
      dz2     :     0.001740  d :     0.003563
      dxz     :     0.000735
      dyz     :    -0.000198
      dx2y2   :     0.000453
      dxy     :     0.000833

  8 B s       :     0.063729  s :     0.063729
      pz      :     0.158759  p :     0.322920
      px      :    -0.020549
      py      :     0.184710
      dz2     :     0.000174  d :     0.000672
      dxz     :     0.000626
      dyz     :    -0.000031
      dx2y2   :    -0.000663
      dxy     :     0.000567

  9 B s       :     0.431802  s :     0.431802
      pz      :     0.068315  p :     0.433352
      px      :     0.290941
      py      :     0.074096
      dz2     :     0.000038  d :    -0.001315
      dxz     :    -0.000979
      dyz     :     0.000543
      dx2y2   :    -0.000620
      dxy     :    -0.000298

 10 B s       :    -0.290288  s :    -0.290288
      pz      :     0.048432  p :     0.024873
      px      :    -0.078862
      py      :     0.055304
      dz2     :     0.001689  d :     0.003417
      dxz     :     0.000691
      dyz     :    -0.000171
      dx2y2   :     0.000420
      dxy     :     0.000788

 11 B s       :     0.060261  s :     0.060261
      pz      :     0.156491  p :     0.319700
      px      :    -0.018044
      py      :     0.181253
      dz2     :     0.000167  d :     0.000861
      dxz     :     0.000700
      dyz     :    -0.000026
      dx2y2   :    -0.000627
      dxy     :     0.000647



                     *******************************
                     * LOEWDIN POPULATION ANALYSIS *
                     *******************************

-------------------------------------------
LOEWDIN ATOMIC CHARGES AND SPIN POPULATIONS
-------------------------------------------
   0 B :   -0.109757    0.461564
   1 B :    0.096963    0.402175
   2 B :    0.009468    0.154708
   3 B :   -0.103678    0.430426
   4 B :    0.096345    0.406601
   5 B :    0.010940    0.144553
   6 B :   -0.109821    0.460912
   7 B :    0.010674    0.144489
   8 B :    0.096360    0.406689
   9 B :   -0.103718    0.430940
  10 B :    0.009130    0.154673
  11 B :    0.097094    0.402271

----------------------------------------------------
LOEWDIN REDUCED ORBITAL CHARGES AND SPIN POPULATIONS
----------------------------------------------------
CHARGE
  0 B s       :     2.675503  s :     2.675503
      pz      :     0.769068  p :     2.349024
      px      :     0.795787
      py      :     0.784169
      dz2     :     0.016946  d :     0.085230
      dxz     :     0.019603
      dyz     :     0.007078
      dx2y2   :     0.019456
      dxy     :     0.022147

  1 B s       :     2.754739  s :     2.754739
      pz      :     0.535874  p :     2.082080
      px      :     0.983333
      py      :     0.562874
      dz2     :     0.013764  d :     0.066218
      dxz     :     0.015581
      dyz     :     0.006867
      dx2y2   :     0.014052
      dxy     :     0.015953

  2 B s       :     2.681685  s :     2.681685
      pz      :     0.690335  p :     2.229150
      px      :     0.845102
      py      :     0.693713
      dz2     :     0.019005  d :     0.079697
      dxz     :     0.013541
      dyz     :     0.014086
      dx2y2   :     0.019282
      dxy     :     0.013783

  3 B s       :     2.675265  s :     2.675265
      pz      :     0.770411  p :     2.343519
      px      :     0.787534
      py      :     0.785574
      dz2     :     0.016958  d :     0.084894
      dxz     :     0.019447
      dyz     :     0.007090
      dx2y2   :     0.019373
      dxy     :     0.022026

  4 B s       :     2.752923  s :     2.752923
      pz      :     0.536944  p :     2.084646
      px      :     0.982543
      py      :     0.565159
      dz2     :     0.013743  d :     0.066085
      dxz     :     0.015586
      dyz     :     0.006815
      dx2y2   :     0.014001
      dxy     :     0.015941

  5 B s       :     2.681462  s :     2.681462
      pz      :     0.690546  p :     2.227946
      px      :     0.843880
      py      :     0.693521
      dz2     :     0.019107  d :     0.079651
      dxz     :     0.013534
      dyz     :     0.013988
      dx2y2   :     0.019251
      dxy     :     0.013771

  6 B s       :     2.675428  s :     2.675428
      pz      :     0.769005  p :     2.349170
      px      :     0.796224
      py      :     0.783941
      dz2     :     0.016958  d :     0.085223
      dxz     :     0.019554
      dyz     :     0.007121
      dx2y2   :     0.019530
      dxy     :     0.022061

  7 B s       :     2.681327  s :     2.681327
      pz      :     0.690647  p :     2.228318
      px      :     0.842455
      py      :     0.695216
      dz2     :     0.019113  d :     0.079681
      dxz     :     0.013499
      dyz     :     0.014031
      dx2y2   :     0.019228
      dxy     :     0.013809

  8 B s       :     2.752980  s :     2.752980
      pz      :     0.536761  p :     2.084576
      px      :     0.982851
      py      :     0.564964
      dz2     :     0.013743  d :     0.066084
      dxz     :     0.015606
      dyz     :     0.006790
      dx2y2   :     0.013916
      dxy     :     0.016029

  9 B s       :     2.675331  s :     2.675331
      pz      :     0.770317  p :     2.343519
      px      :     0.788127
      py      :     0.785074
      dz2     :     0.016938  d :     0.084869
      dxz     :     0.019414
      dyz     :     0.007123
      dx2y2   :     0.019446
      dxy     :     0.021948

 10 B s       :     2.681519  s :     2.681519
      pz      :     0.690903  p :     2.229614
      px      :     0.843377
      py      :     0.695335
      dz2     :     0.019019  d :     0.079737
      dxz     :     0.013519
      dyz     :     0.014135
      dx2y2   :     0.019247
      dxy     :     0.013817

 11 B s       :     2.754769  s :     2.754769
      pz      :     0.535576  p :     2.081916
      px      :     0.983679
      py      :     0.562661
      dz2     :     0.013744  d :     0.066220
      dxz     :     0.015624
      dyz     :     0.006841
      dx2y2   :     0.013962
      dxy     :     0.016049


SPIN
  0 B s       :     0.083620  s :     0.083620
      pz      :     0.047269  p :     0.375103
      px      :     0.269756
      py      :     0.058079
      dz2     :     0.000304  d :     0.002840
      dxz     :    -0.001106
[...]

  9 B s       :     2.672587  s :     2.672587
      pz      :     0.784772  p :     2.263557
      px      :     0.694792
      py      :     0.783993
      dz2     :     0.018149  d :     0.081723
      dxz     :     0.017494
      dyz     :     0.008301
      dx2y2   :     0.020297
      dxy     :     0.017481

 10 B s       :     2.669091  s :     2.669091
      pz      :     0.714970  p :     2.269162
      px      :     0.838659
      py      :     0.715533
      dz2     :     0.021386  d :     0.084349
      dxz     :     0.013495
      dyz     :     0.014180
      dx2y2   :     0.021758
      dxy     :     0.013530

 11 B s       :     2.709037  s :     2.709037
      pz      :     0.607751  p :     2.165301
      px      :     0.949382
      py      :     0.608167
      dz2     :     0.017030  d :     0.082452
      dxz     :     0.019673
      dyz     :     0.007391
      dx2y2   :     0.018692
      dxy     :     0.019668


SPIN
  0 B s       :     0.185668  s :     0.185668
      pz      :     0.102038  p :     0.533259
      px      :     0.329954
      py      :     0.101266
      dz2     :    -0.001305  d :    -0.003441
      dxz     :    -0.000389
      dyz     :     0.000049
      dx2y2   :    -0.001429
      dxy     :    -0.000366

  1 B s       :     0.035431  s :     0.035431
      pz      :     0.123045  p :     0.276422
      px      :     0.029858
      py      :     0.123519
      dz2     :     0.000198  d :     0.005468
      dxz     :     0.003264
      dyz     :    -0.000798
      dx2y2   :    -0.000459
      dxy     :     0.003263

  2 B s       :     0.036321  s :     0.036321
      pz      :     0.106377  p :     0.240455
      px      :     0.027427
      py      :     0.106651
      dz2     :     0.001555  d :     0.006519
      dxz     :     0.002127
      dyz     :     0.000678
      dx2y2   :     0.000037
      dxy     :     0.002123

  3 B s       :     0.053507  s :     0.053507
      pz      :     0.048885  p :     0.218591
      px      :     0.121334
      py      :     0.048372
      dz2     :     0.000275  d :     0.002613
      dxz     :    -0.000114
      dyz     :     0.001133
      dx2y2   :     0.001396
      dxy     :    -0.000077

  4 B s       :     0.028389  s :     0.028389
      pz      :     0.153614  p :     0.310635
      px      :     0.003304
      py      :     0.153717
      dz2     :     0.001346  d :     0.002096
      dxz     :     0.000738
      dyz     :    -0.000178
      dx2y2   :    -0.000553
      dxy     :     0.000743

  5 B s       :     0.004422  s :     0.004422
      pz      :     0.035636  p :     0.054643
      px      :    -0.016550
      py      :     0.035557
      dz2     :     0.002423  d :     0.009253
      dxz     :     0.002803
      dyz     :     0.000282
      dx2y2   :     0.000949
      dxy     :     0.002797

  6 B s       :     0.185529  s :     0.185529
      pz      :     0.102144  p :     0.532933
      px      :     0.327783
      py      :     0.103007
      dz2     :    -0.001304  d :    -0.003436
      dxz     :    -0.000370
      dyz     :     0.000024
      dx2y2   :    -0.001415
      dxy     :    -0.000370

  7 B s       :     0.004423  s :     0.004423
      pz      :     0.035714  p :     0.054790
      px      :    -0.016828
      py      :     0.035905
      dz2     :     0.002425  d :     0.009246
      dxz     :     0.002783
      dyz     :     0.000298
      dx2y2   :     0.000952
      dxy     :     0.002788

  8 B s       :     0.028381  s :     0.028381
      pz      :     0.153640  p :     0.310566
      px      :     0.003409
      py      :     0.153517
      dz2     :     0.001343  d :     0.002092
      dxz     :     0.000729
      dyz     :    -0.000171
      dx2y2   :    -0.000532
      dxy     :     0.000724

  9 B s       :     0.053411  s :     0.053411
      pz      :     0.048787  p :     0.218287
      px      :     0.120408
      py      :     0.049092
      dz2     :     0.000276  d :     0.002624
      dxz     :    -0.000095
      dyz     :     0.001123
      dx2y2   :     0.001418
      dxy     :    -0.000098

 10 B s       :     0.036424  s :     0.036424
      pz      :     0.106538  p :     0.240943
      px      :     0.027985
      py      :     0.106420
      dz2     :     0.001552  d :     0.006515
      dxz     :     0.002105
      dyz     :     0.000701
      dx2y2   :     0.000048
      dxy     :     0.002110

 11 B s       :     0.035353  s :     0.035353
      pz      :     0.122864  p :     0.276183
      px      :     0.029832
      py      :     0.123486
      dz2     :     0.000199  d :     0.005483
      dxz     :     0.003267
      dyz     :    -0.000792
      dx2y2   :    -0.000453
      dxy     :     0.003262



                      *****************************
                      * MAYER POPULATION ANALYSIS *
                      *****************************

  NA   - Mulliken gross atomic population
  ZA   - Total nuclear charge
  QA   - Mulliken gross atomic charge
  VA   - Mayer's total valence
  BVA  - Mayer's bonded valence
  FA   - Mayer's free valence

  ATOM       NA         ZA         QA         VA         BVA        FA
  0 B      5.2071     5.0000    -0.2071     3.8194     3.4836     0.3359
  1 B      5.5452     5.0000    -0.5452     4.9151     4.7071     0.2080
  2 B      4.4313     5.0000     0.5687     2.6632     2.6993    -0.0361
  3 B      5.0100     5.0000    -0.0100     3.8699     3.7889     0.0810
  4 B      5.4631     5.0000    -0.4631     4.7881     4.6288     0.1593
  5 B      4.3434     5.0000     0.6566     2.0333     2.0039     0.0294
  6 B      5.2083     5.0000    -0.2083     3.8205     3.4852     0.3353
  7 B      4.3433     5.0000     0.6567     2.0347     2.0055     0.0292
  8 B      5.4642     5.0000    -0.4642     4.7887     4.6293     0.1594
  9 B      5.0083     5.0000    -0.0083     3.8686     3.7874     0.0811
 10 B      4.4314     5.0000     0.5686     2.6627     2.6990    -0.0363
 11 B      5.5444     5.0000    -0.5444     4.9145     4.7070     0.2075

  Mayer bond orders larger than 0.100000
B(  0-B ,  1-B ) :   1.7469 B(  0-B ,  2-B ) :  -0.6595 B(  0-B ,  3-B ) :   0.3520 
B(  0-B ,  4-B ) :   0.3181 B(  0-B ,  5-B ) :   0.1584 B(  0-B ,  6-B ) :   0.5202 
B(  0-B ,  7-B ) :   0.1606 B(  0-B ,  8-B ) :   0.3187 B(  0-B ,  9-B ) :   0.3507 
B(  0-B , 10-B ) :  -0.5006 B(  0-B , 11-B ) :   0.7180 B(  1-B ,  2-B ) :   0.6815 
B(  1-B ,  3-B ) :   0.1811 B(  1-B ,  4-B ) :   0.4746 B(  1-B ,  6-B ) :   0.7202 
B(  1-B ,  8-B ) :   0.4730 B(  1-B ,  9-B ) :   0.1805 B(  1-B , 11-B ) :   0.4951 
B(  2-B ,  3-B ) :   0.4569 B(  2-B ,  4-B ) :   0.2159 B(  2-B ,  5-B ) :   0.7330 
B(  2-B ,  6-B ) :  -0.5017 B(  2-B ,  7-B ) :   0.7333 B(  2-B ,  8-B ) :   0.2158 
B(  2-B ,  9-B ) :   0.4587 B(  2-B , 10-B ) :   0.4618 B(  3-B ,  4-B ) :   1.4763 
B(  3-B ,  5-B ) :  -0.4746 B(  3-B ,  6-B ) :   0.3519 B(  3-B ,  7-B ) :  -0.3746 
B(  3-B ,  8-B ) :   0.4574 B(  3-B ,  9-B ) :   0.7236 B(  3-B , 10-B ) :   0.4579 
B(  3-B , 11-B ) :   0.1810 B(  4-B ,  5-B ) :   0.4820 B(  4-B ,  6-B ) :   0.3192 
B(  4-B ,  7-B ) :  -0.1922 B(  4-B ,  8-B ) :   0.3897 B(  4-B ,  9-B ) :   0.4559 
B(  4-B , 10-B ) :   0.2161 B(  4-B , 11-B ) :   0.4732 B(  5-B ,  6-B ) :   0.1589 
B(  5-B ,  7-B ) :   0.9278 B(  5-B ,  8-B ) :  -0.1928 B(  5-B ,  9-B ) :  -0.3733 
B(  5-B , 10-B ) :   0.7330 B(  6-B ,  7-B ) :   0.1579 B(  6-B ,  8-B ) :   0.3193 
B(  6-B ,  9-B ) :   0.3519 B(  6-B , 10-B ) :  -0.6603 B(  6-B , 11-B ) :   1.7477 
B(  7-B ,  8-B ) :   0.4820 B(  7-B ,  9-B ) :  -0.4733 B(  7-B , 10-B ) :   0.7329 
B(  8-B ,  9-B ) :   1.4757 B(  8-B , 10-B ) :   0.2160 B(  8-B , 11-B ) :   0.4745 
B(  9-B , 10-B ) :   0.4569 B(  9-B , 11-B ) :   0.1802 B( 10-B , 11-B ) :   0.6818 


-------
TIMINGS
-------

Total SCF time: 0 days 0 hours 0 min 3 sec 

Total time                  ....       3.506 sec
Sum of individual times     ....       2.852 sec  ( 81.3%)

SCF preparation             ....       0.127 sec  (  3.6%)
Fock matrix formation       ....       2.201 sec  ( 62.8%)
  Startup                   ....       0.020 sec  (  0.9% of F)
  Split-RI-J                ....       0.210 sec  (  9.5% of F)
  XC integration            ....       2.362 sec  (107.3% of F)
    Basis function eval.    ....       0.180 sec  (  7.6% of XC)
    Density eval.           ....       0.813 sec  ( 34.4% of XC)
    XC-Functional eval.     ....       0.044 sec  (  1.9% of XC)
    XC-Potential eval.      ....       0.975 sec  ( 41.3% of XC)
Diagonalization             ....       0.000 sec  (  0.0%)
Density matrix formation    ....       0.087 sec  (  2.5%)
Total Energy calculation    ....       0.069 sec  (  2.0%)
Population analysis         ....       0.135 sec  (  3.9%)
Orbital Transformation      ....       0.044 sec  (  1.3%)
Orbital Orthonormalization  ....       0.000 sec  (  0.0%)
DIIS solution               ....       0.047 sec  (  1.3%)
SOSCF solution              ....       0.142 sec  (  4.1%)
Finished LeanSCF after   3.6 sec

Maximum memory used throughout the entire LEANSCF-calculation: 14.5 MB


-------------------------------------------------------------------------------
                          DFT DISPERSION CORRECTION                            
                                                                               
                                DFTD4 V3.4.0                                   
-------------------------------------------------------------------------------
The R2SCAN3C composite method is recognized
Using three-body term ABC
Active option DFTDOPT                   ...         5   

-------------------------   ----------------
Dispersion correction           -0.005689793
-------------------------   ----------------

------------------   -----------------
gCP correction             0.011566352
------------------   -----------------

-------------------------   --------------------
FINAL SINGLE POINT ENERGY      -297.730327963220
-------------------------   --------------------

                                *** OPTIMIZATION RUN DONE ***



           ************************************************************
           *        Program running with 8 parallel MPI-processes     *
           *              working on a common directory               *
           ************************************************************

------------------------------------------------------------------------------
                              ORCA PROPERTY CALCULATIONS
------------------------------------------------------------------------------

GBWName                                 ... b12_hexagonal_prism_m5_spinopt.gbw
Number of atoms                         ...     12
Number of basis functions               ...    228
Max core memory                         ...   1500 MB

Electric properties:
Dipole moment                           ... YES
Quadrupole moment                       ...  NO
Static polarizability (Dipole/Dipole)   ...  NO
Static polarizability (Dipole/Quad.)    ...  NO
Static polarizability (Quad./Quad.)     ...  NO
Static polarizability (Velocity)        ...  NO
Static hyperpolarizability              ...  NO

Atomic electric properties:
Dipole moment                           ...  NO
Quadrupole moment                       ...  NO
Static polarizability                   ...  NO

Choice of electric origin               ... Center of mass
Position of electric origin             ...     0.000000     0.000000    -0.000000

General magnetic properties:
Magnetizability                         ...  NO

EPR properties:
g-Tensor (aka g-matrix)                 ...  NO
Zero-Field splitting spin-orbit         ...  NO
Zero-field splitting spin-spin          ...  NO
Hyperfine couplings                     ...  NO (   0 nuclei)
Quadrupole couplings                    ...  NO (   0 nuclei)
Contact density                         ...  NO (   0 nuclei)

NMR properties:
Chemical shifts                         ...  NO (   0 nuclei)
Spin-rotation constants                 ...  NO (   0 nuclei)
Spin-spin couplings                     ...  NO (   0 nuclei,    0 pairs)

Choice of magnetic origin               ... GIAO
Position of magnetic origin             ...     0.000000     0.000000     0.000000

Properties with geometric perturbations:
SCF Hessian                             ...  NO
IR spectrum                             ...  NO
VCD spectrum                            ...  NO
X-ray spectroscopy properties:
SCF XES/XAS/RIXS spectra                ...  NO

SCF SOC stabilization energy            ...  NO
Diagonal Born-Oppenheimer correction    ...  NO

-------------
DIPOLE MOMENT
-------------

Method             : SCF
Type of density    : Electron Density
Multiplicity       :   5
Irrep              :   0
Energy             :  -297.7362045221869948 Eh
Basis              : AO
                                X                 Y                 Z
Electronic contribution:     -0.720150883       0.001946278       0.000375660
Nuclear contribution   :      0.000000000       0.000000000      -0.000000000
                        -----------------------------------------
Total Dipole Moment    :     -0.720150883       0.001946278       0.000375660
                        -----------------------------------------
Magnitude (a.u.)       :      0.720153611
Magnitude (Debye)      :      1.830485008



--------------------
Rotational spectrum 
--------------------
 
Rotational constants in cm-1:             0.104981             0.051954             0.050918 
Rotational constants in MHz :          3147.246450          1557.555291          1526.497238 

Dipole components along the rotational axes: 
x,y,z [a.u.] :    -0.720154    -0.000042     0.000367 
x,y,z [Debye]:    -1.830485    -0.000108     0.000933 

 

Dipole moment calculation done in   0.0 sec 

Maximum memory used throughout the entire PROP-calculation: 10.4 MB
Converting b12_hexagonal_prism_m5_spinopt.gbw to JSON (see b12_hexagonal_prism_m5_spinopt.2jsonout) ... done

--------------------------------
SUGGESTED CITATIONS FOR THIS RUN
--------------------------------

Below you find a list of papers that are relevant to this ORCA run
We neither can nor want to force you to cite these papers, but we appreciate if you do
You receive ORCA, which is the product of decades of hard work by many enthusiastic individuals, for free
The only thing we kindly ask in return is that you cite our papers,
We deeply appreciate it, if you show your appreciation for ORCA by not just citing the generic ORCA reference.

Please note that relegating all ORCA citations to the supporting information does *not* help us.
SI sections are not indexed - citations you put there will not count into any citation statistics
But we need these citations in order to attract the funding resources that allow us to do what we are doing

Therefore, if you are a happy ORCA user, please consider citing a few of the papers listed below in the main body of your paper

In addition to the list printed below, the program has created the file b12_hexagonal_prism_m5_spinopt.bibtex that contains the list in bibtex format
You can import this file easily into all common literature databanks and citation aid programs

It goes without saying that in many instances, there are alternative algorithms to achieve similar
results as the ones you have gotten from ORCA. It is, of course, also the case that in some instances
ORCA just re-implements algorithms worked out by others. We are fully aware of that and we are also
fully appreciative of our colleagues work. Hence this citation list should not be read as indicating
that the listed papers, which are focused on our own work, are the only ones worth citing. It simply
meant to make it easier for users to cite ORCA specific papers. It is not a substitute for doing your
own literature research and citing the relevant literature in a scientifically appropriate manner.

List of essential papers. We consider these as the minimum necessary citations

  1. Grimme, S.; Hansen, A.; Ehlert, S.; Mewes, J.
     r2SCAN-3c: A 'Swiss army knife' composite electronic-structure method
     J. Chem. Phys. 2021 154 , 064103
     doi.org/10.1063/5.0040021
  2. Neese, F.
     Software update: the ORCA program system, version 6.0
     WIRES Comput. Molec. Sci. 2025 15(1), e70019
     doi.org/10.1002/wcms.70019

List of papers to cite with high priority. The work reported in these papers was absolutely
necessary for this run to complete.
Our perspective: the developers of density functionals and basis sets usually get cited in chemistry papers
Good! But without the algorithms to do something with them, the functionals or basis sets would not do anything.
Hence, in our opinion, the algorithm design and method developments papers are equally worthy of getting cited

  1. Neese, F.
     An improvement of the resolution of the identity approximation for the formation of the Coulomb matrix
     J. Comp. Chem. 2003 24(14), 1740-1747
     doi.org/10.1002/jcc.10318
  2. Caldeweyher, E.; Bannwarth, C.; Grimme, S.
     Extension of the D3 dispersion coefficient model
     J. Chem. Phys. 2017 147 , 034112
     doi.org/10.1063/1.4993215
  3. Lehtola, S.; Steigemann, C.; Oliveira, M.; Marques, M.
     Recent developments in Libxc - A comprehensive library of functionals for density functional theory
     Software X 2018 7 , 
     doi.org/10.1016/j.softx.2017.11.002
  4. Caldeweyher, E.; Ehlert, S.; Hansen, A.; Neugebauer, H.; Spicher, S.; Bannwarth, C.; Grimme, S.
     A generally applicable atomic-charge dependent London dispersion correction
     J. Chem. Phys. 2019 150 , 154122
     doi.org/10.1063/1.5090222
  5. Neese, F.
     The SHARK Integral Generation and Digestion System
     J. Comp. Chem. 2022 44(3), 381
     doi.org/10.1002/jcc.26942

List of suggested additional citations. These are papers that are important in the 'surrounding' of 
of this run, or papers that preceded the highly important papers. If you like your results we are grateful for a citation.

  1. Neese, F.
     The ORCA program system
     WIRES Comput. Molec. Sci. 2012 2(1), 73-78
     doi.org/10.1002/wcms.81
  2. Neese, F.
     Software update: the ORCA program system, version 4.0
     WIRES Comput. Molec. Sci. 2018 8(1), 1-6
     doi.org/10.1002/wcms.1327
  3. Neese, F.; Wennmohs, F.; Becker, U.; Riplinger, C.
     The ORCA quantum chemistry program package
     J. Chem. Phys. 2020 152(22), 224108
     doi.org/10.1063/5.0004608
  4. Neese, F.
     Software update: The ORCA program system—Version 5.0
     WIRES Comput. Molec. Sci. 2022 12(1), e1606
     doi.org/10.1002/wcms.1606

List of optional additional citations

  1. Neese, F.
     Approximate second-order SCF convergence for spin unrestricted wavefunctions
     Chem. Phys. Lett. 2000 325(1-3), 93-98
     doi.org/10.1016/s0009-2614(00)00662-x

Timings for individual modules:

Sum of individual times          ...      261.011 sec (=   4.350 min)
Startup calculation              ...       13.798 sec (=   0.230 min)   5.3 %
SCF iterations                   ...      204.880 sec (=   3.415 min)  78.5 %
Property calculations            ...        0.168 sec (=   0.003 min)   0.1 %
SCF Gradient evaluation          ...       41.652 sec (=   0.694 min)  16.0 %
Geometry relaxation              ...        0.513 sec (=   0.009 min)   0.2 %
                             ****ORCA TERMINATED NORMALLY****
TOTAL RUN TIME: 0 days 0 hours 4 minutes 27 seconds 954 msec
