
                                 *****************
                                 * O   R   C   A *
                                 *****************

                                            #,                                       
                                            ###                                      
                                            ####                                     
                                            #####                                    
                                            ######                                   
                                           ########,                                 
                                     ,,################,,,,,                         
                               ,,#################################,,                 
                          ,,##########################################,,             
                       ,#########################################, ''#####,          
                    ,#############################################,,   '####,        
                  ,##################################################,,,,####,       
                ,###########''''           ''''###############################       
              ,#####''   ,,,,##########,,,,          '''####'''          '####       
            ,##' ,,,,###########################,,,                        '##       
           ' ,,###''''                  '''############,,,                           
         ,,##''                                '''############,,,,        ,,,,,,###''
      ,#''                                            '''#######################'''  
     '                                                          ''''####''''         
             ,#######,   #######,   ,#######,      ##                                
            ,#'     '#,  ##    ##  ,#'     '#,    #''#        ,####,    ,#,          
            ##       ##  ##   ,#'  ##            #'  '#       #'       ,# #          
            ##       ##  #######   ##           ,######,      #####,      #          
            '#,     ,#'  ##    ##  '#,     ,#' ,#      #,     #,   #      #          
             '#######'   ##     ##  '#######'  #'      '#     '####' #    #          



                #########################################################
                #                        -***-                          #
                #          Department of theory and spectroscopy        #
                #                                                       #
                #                      Frank Neese                      #
                #                                                       #
                #     Directorship, Architecture, Infrastructure        #
                #                    SHARK, DRIVERS                     #
                #        Core code/Algorithms in most modules           #
                #                                                       #
                #        Max Planck Institute fuer Kohlenforschung      #
                #                Kaiser Wilhelm Platz 1                 #
                #                 D-45470 Muelheim/Ruhr                 #
                #                      Germany                          #
                #                                                       #
                #                  All rights reserved                  #
                #                        -***-                          #
                #########################################################


                         Program Version 6.1.1  -  RELEASE   -


 With contributions from (in alphabetic order):
[Max-Planck-Institut fuer Kohlenforschung]                               
  Daniel Aravena         : Magnetic Suceptibility                        
  Michael Atanasov       : Ab Initio Ligand Field Theory (pilot matlab implementation)
  Alexander A. Auer      : GIAO ZORA, VPT2 properties, NMR spectrum      
  Ute Becker             : All parallelization in ORCA, NUMFREQ, NUMCALC 
  Giovanni Bistoni       : ED, misc. LED, open-shell LED, HFLD           
  Dmytro Bykov           : pre 5.0 version of the SCF Hessian            
  Marcos Casanova-Páez   : Triplet and SCS-CIS(D). UHF-(DLPNO)-IP/EA/STEOM-CCSD. UHF-CVS-IP/STEOM-CCSD   
  Vijay G. Chilkuri      : MRCI spin determinant printing, contributions to CSF-ICE 
  Pauline Colinet        : FMM embedding                                 
  Dipayan Datta          : RHF DLPNO-CCSD density                        
  Achintya Kumar Dutta   : EOM-CC, STEOM-CC                              
  Nicolas Foglia         : Exact transition moments, OPA infrastructure, MCD improvements    
  Dmitry Ganyushin       : Spin-Orbit,Spin-Spin,Magnetic field MRCI      
  Miquel Garcia-Rates    : C-PCM and meta-GGA Hessian, CCSD/C-PCM, Gaussian charge scheme 
  Tiago L. C. Gouveia    : GS-ROHF, GS-ROCIS                             
  Yang Guo               : DLPNO-NEVPT2, F12-NEVPT2, CIM, IAO-localization        
  Andreas Hansen         : Spin unrestricted coupled pair/coupled cluster methods 
  Ingolf Harden          : AUTO-CI MPn and infrastructure                
  Benjamin Helmich-Paris : MC-RPA, TRAH-(SCF,CASSCF), AVAS, COSX integrals, SCF dyn. polar., MC-PDFT, srDFT 
  Lee Huntington         : MR-EOM, pCC                                   
  Robert Izsak           : Overlap fitted RIJCOSX, COSX-SCS-MP3, EOM     
  Riya Kayal             : Wick's Theorem for AUTO-CI, AUTO-CI UHF-CCSDT 
  Emily Kempfer          : AUTO-CI RHF CISDT and CCSDT, approximate NEVPT4
  Christian Kollmar      : KDIIS, OOCD, Brueckner-CCSD(T), CCSD density, CASPT2, CASPT2-K, improved NEVPT2 
  Axel Koslowski         : Symmetry handling                             
  Simone Kossmann        : meta-GGA functionals, TD-DFT gradient, OOMP2, (MP2 Hessian; deprecated post 5.0) 
  Lucas Lang             : DCDCAS, Hyperfine gauge corrections, ICE-SOC+SSC
  Marvin Lechner         : AUTO-CI (C++ implementation), FIC-MRCC        
  Spencer Leger          : CASSCF response                               
  Dagmar Lenk            : GEPOL surface, SMD, ORCA-2-JSON               
  Dimitrios Liakos       : Extrapolation schemes; Compound Job, Property file
  Dimitrios Manganas     : Further ROCIS development; embedding schemes. LFT, Crystal Embedding 
  Dimitrios Pantazis     : SARC Basis sets                               
  Anastasios Papadopoulos: AUTO-CI, single reference methods and gradients 
  Taras Petrenko         : pre 6.0 DFT Hessian and TD-DFT gradient,  ECA, NRVS 
  Petra Pikulova         : Analytic Raman intensities                    
  Peter Pinski           : DLPNO-MP2, DLPNO-MP2 Gradient                 
  Shashank Vittal Rao    : ES-AILFT, MagRelax                            
  Christoph Reimann      : Effective Core Potentials                     
  Marius Retegan         : Local ZFS, SOC                                
  Christoph Riplinger    : Optimizer, TS searches, QM/MM, DLPNO-CCSD(T), (RO)-DLPNO pert. Triples 
  Michael Roemelt        : Original ROCIS implementation, recursive CI coupling coefficients
  Masaaki Saitow         : Open-shell DLPNO-CCSD energy and density      
  Barbara Sandhoefer     : DKH picture change effects                    
  Yorick L. A. Schmerwitz: GMF and freeze-and-release deltaSCF, NEB S-IDPP initial path                    
  Kantharuban Sivalingam : CASSCF convergence/infrastructure, NEVPT2, NEVPT3, NEVPT4(SD), FIC-MRCI and CEPA variants
  Bernardo de Souza      : ESD, SOC TD-DFT                               
  Georgi L. Stoychev     : AutoAux, RI-MP2 NMR, DLPNO-MP2 response, X2C  
  Van Anh Tran           : RI-MP2 g-tensors                              
  Willem Van den Heuvel  : Paramagnetic NMR                              
  Zikuan Wang            : NOTCH, Electric field optimization            
  Frank Wennmohs         : Technical directorship and infrastructure     
  Hang Xu                : AUTO-CI-Response properties                   
                                                                         
[FACCTs GmbH]                                                            
  Markus Bursch, Nicolas Foglia, Miquel Garcia-Rates, Ingolf Harden, Hagen Neugebauer, Anastasios Papadopoulos, 
  Christoph Riplinger, Bernardo de Souza, Georgi L. Stoychev                                                    
                                                                 
  APM, various basis sets, CI-OPT, improved COSX, DLPNO-Multilevel,           
  DOCKER, DRACO, updates on ESD, Fragmentator, GOAT, IRC, LR-CPCM, L-BFGS, MBIS, meta-GGA TD-DFT gradient, ML-optimized integration grids, 
  MM, NACMEs, nearIR, NEB, NEB-TS, NL-DFT gradient (VV10), 2- and 3-layer-ONIOM, interface openCOSMO-RS, QMMM,   
  Crystal-QMMM, RESP, rigid body optimization, SF, symmetry and pop. for TD-DFT, various functionals, SOLVATOR                                   
                                                                         
[Other institutions]                                                     
  V. Asgeirsson          : NEB                                           
  Christoph Bannwarth    : sTDA-DFT, sTD-DFT, PBEh-3c, B97-3c, D3        
  Giovanni Bistoni       : ETS/NOCV, ADLD/ADEX, COVALED                  
  Martin Brehm           : Molecular dynamics                            
  Ronald Cardenas        : ETS/NOCV                                      
  Martina Colucci        : COVALED                                       
  Sebastian Ehlert       : rSCAN, r2SCAN, r2SCAN-3c, D4, dhf basis sets  
  Marvin Friede          : D4 for Fr, Ra, Ac-Lr                          
  Lars Goerigk           : TD-DFT with DH, B97 family of functionals     
  Stefan Grimme          : VdW corrections, initial TS optimization, DFT functionals, gCP, sTDA/sTD-DF 
  Waldemar Hujo          : DFT-NL                                        
  H. Jonsson             : NEB                                           
  Holger Kruse           : gCP                                           
  Marcel Mueller         : wB97X-3c, vDZP basis set                      
  Hagen Neugebauer       : wr2SCAN, Native XTB                           
  Gianluca Regni         : ADLD/ADEX                                     
  Tobias Risthaus        : pre 6.0 range-separated hybrid DFT and stability analysis
  Lukas Wittmann         : regularized MP2, r2SCAN double-hybrids, wr2SCAN        
                                                                         
We gratefully acknowledge several colleagues who have allowed us to      
interface, adapt or use parts of their codes:                            
  Ed Valeev, F. Pavosevic, A. Kumar             : LibInt (2-el integral package), F12 methods 
  Garnet Chan, S. Sharma, J. Yang, R. Olivares  : DMRG                   
  Ulf Ekstrom                                   : XCFun DFT Library      
  Mihaly Kallay                                 : mrcc  (arbitrary order and MRCC methods)
  Frank Weinhold                                : gennbo (NPA and NBO analysis)           
  Simon Mueller                                 : openCOSMO-RS                            
  Christopher J. Cramer and Donald G. Truhlar   : smd solvation model                     
  S Lehtola, MJT Oliveira, MAL Marques          : LibXC Library                           
  Liviu Ungur et al                             : ANISO software                          


 Your calculation uses the libint2 library for the computation of 2-el integrals
 For citations please refer to: http://libint.valeyev.net

 Your ORCA version has been built with support for libXC version: 7.0.0
 For citations please refer to: https://libxc.gitlab.io

 This ORCA versions uses:
   CBLAS   interface :  Fast vector & matrix operations
   LAPACKE interface :  Fast linear algebra routines
   Shared memory     :  Shared parallel matrices


  ***********************************
  * Starting time: Mon Mar 30 17:53:36 2026
  * Host name:     DESKTOP-E59RH2R
  * Process ID:    84360
  * Working dir.:  C:\Users\gnome\Desktop\Vitya_Diplom\Vitya_DiplomB12\05_spin_comparison\b12_hexagonal_prism\mult_3\freq
  ***********************************

NOTE: MaxCore=1500 MB was set to SCF,MP2,MDCI,CIPSI,MRCI,RASCI and CIS
      => If you want to overwrite this, your respective input block should be placed after the MaxCore statement
Your calculation utilizes the geometrical counterpoise correction gCP
Please cite in your paper:
H.Kruse, S. Grimme J.Chem.Phys., 136, (2012), 154101 
   

Your calculation utilizes the atom-pairwise dispersion correction
based on EEQ partial charges (D4)


================================================================================

----- Orbital basis set information -----
Your calculation utilizes the basis: def2-mTZVPP
   Stefan Grimme, Andreas Hansen, Sebastian Ehlert, and Jan-Michael Mewes 
   J. Chem. Phys. 154, 064103 (2021). DOI: 10.1063/5.0040021

----- AuxJ basis set information -----
Your calculation utilizes the basis: def2-mTZVPP/J
   Stefan Grimme, Andreas Hansen, Sebastian Ehlert, and Jan-Michael Mewes 
   J. Chem. Phys. 154, 000000 (2021). DOI: 10.1063/5.0040021

================================================================================
                                        WARNINGS
                       Please study these warnings very carefully!
================================================================================



WARNING: SCAN, rSCAN, or r2SCAN functional requested.
  ===> : libXC variant has now been activated.



WARNING: your system is open-shell and RHF/RKS was chosen
  ===> : WILL SWITCH to UHF/UKS


================================================================================
                                       INPUT FILE
================================================================================
NAME = b12_hexagonal_prism_m3_spinfreq.inp
|  1> !r2scan-3c
|  2> !freq
|  3> !tightscf
|  4> 
|  5> %output
|  6>     jsonpropfile true
|  7>     jsongbwfile true
|  8> end
|  9> 
| 10> %freq
| 11>     temp 298.15
| 12>     pressure 1.0
| 13> end
| 14> 
| 15> %maxcore 1500
| 16> %pal
| 17>   nprocs 8
| 18> end
| 19> 
| 20> * xyz 0 3
| 21> B             2.0140689424694500             0.5834746338146700             0.5889770958257600
| 22> B             0.6218066464409600             1.0763029278374401             1.0777901312859499
| 23> B            -0.9744794384773900             0.7954729621546900             0.7927803081602800
| 24> B            -2.0103850238208700            -0.5584437240089800             0.5652858213817700
| 25> B            -0.6054349424352100            -1.0298616803015599             1.0322778888342401
| 26> B             0.9564966590790300            -0.7130679354698400             0.7098243852396300
| 27> B             2.0100095984587498            -0.5959219600085101            -0.5903270520772600
| 28> B             0.9603451027822000             0.7070450386033000            -0.7103979410206800
| 29> B            -0.5996863443645000             1.0338395743554800            -1.0316903274148299
| 30> B            -2.0071734201151199             0.5707823789951200            -0.5640672119774000
| 31> B            -0.9800131256787900            -0.7896130657704400            -0.7921699008234900
| 32> B             0.6144453456615000            -1.0800091502013600            -1.0782831974139699
| 33> *
| 34> 
| 35>                          ****END OF INPUT****
================================================================================

                       ****************************
                       * Single Point Calculation *
                       ****************************

---------------------------------
CARTESIAN COORDINATES (ANGSTROEM)
---------------------------------
  B      2.014069    0.583475    0.588977
  B      0.621807    1.076303    1.077790
  B     -0.974479    0.795473    0.792780
  B     -2.010385   -0.558444    0.565286
  B     -0.605435   -1.029862    1.032278
  B      0.956497   -0.713068    0.709824
  B      2.010010   -0.595922   -0.590327
  B      0.960345    0.707045   -0.710398
  B     -0.599686    1.033840   -1.031690
  B     -2.007173    0.570782   -0.564067
  B     -0.980013   -0.789613   -0.792170
  B      0.614445   -1.080009   -1.078283

----------------------------
CARTESIAN COORDINATES (A.U.)
----------------------------
  NO LB      ZA    FRAG     MASS         X           Y           Z
   0 B     5.0000    0    10.810    3.806039    1.102607    1.113005
   1 B     5.0000    0    10.810    1.175044    2.033918    2.036728
   2 B     5.0000    0    10.810   -1.841499    1.503226    1.498138
   3 B     5.0000    0    10.810   -3.799077   -1.055306    1.068235
   4 B     5.0000    0    10.810   -1.144106   -1.946157    1.950723
   5 B     5.0000    0    10.810    1.807517   -1.347503    1.341374
   6 B     5.0000    0    10.810    3.798368   -1.126129   -1.115556
   7 B     5.0000    0    10.810    1.814789    1.336121   -1.342458
   8 B     5.0000    0    10.810   -1.133243    1.953674   -1.949612
   9 B     5.0000    0    10.810   -3.793008    1.078622   -1.065933
  10 B     5.0000    0    10.810   -1.851956   -1.492152   -1.496984
  11 B     5.0000    0    10.810    1.161133   -2.040922   -2.037660

--------------------------------
INTERNAL COORDINATES (ANGSTROEM)
--------------------------------
 B      0   0   0     0.000000000000     0.00000000     0.00000000
 B      1   0   0     1.555703124625     0.00000000     0.00000000
 B      2   1   0     1.645668658572   139.42980441     0.00000000
 B      3   2   1     1.719867586860   137.85841136    43.76486134
 B      4   3   2     1.553769999634    69.78537534     9.41707385
 B      5   4   3     1.626027326509   138.57858769   316.00176626
 B      1   2   3     1.667858230503   116.35948070     0.00000000
 B      7   1   2     1.677478933199    60.19005196    43.61809141
 B      8   7   1     1.625952515370   140.41035808   226.15646037
 B      9   8   7     1.553741681449   138.57060235    51.24221164
 B     10   9   8     1.719815360225    69.80566921   316.03462235
 B      7   1   2     1.555648157896   116.36040956     0.00000000

---------------------------
INTERNAL COORDINATES (A.U.)
---------------------------
 B      0   0   0     0.000000000000     0.00000000     0.00000000
 B      1   0   0     2.939852851227     0.00000000     0.00000000
 B      2   1   0     3.109863071879   139.42980441     0.00000000
 B      3   2   1     3.250078725774   137.85841136    43.76486134
 B      4   3   2     2.936199774412    69.78537534     9.41707385
 B      5   4   3     3.072746333374   138.57858769   316.00176626
 B      1   2   3     3.151795285857   116.35948070     0.00000000
 B      7   1   2     3.169975779169    60.19005196    43.61809141
 B      8   7   1     3.072604960810   140.41035808   226.15646037
 B      9   8   7     2.936146260797   138.57060235    51.24221164
 B     10   9   8     3.249980031735    69.80566921   316.03462235
 B      7   1   2     2.939748979163   116.36040956     0.00000000

---------------------
BASIS SET INFORMATION
---------------------
There are 1 groups of distinct atoms

 Group   1 Type B   : 11s6p1d contracted to 5s3p1d pattern {62111/411/1}

Atom   0B    basis set group =>   1
Atom   1B    basis set group =>   1
Atom   2B    basis set group =>   1
Atom   3B    basis set group =>   1
Atom   4B    basis set group =>   1
Atom   5B    basis set group =>   1
Atom   6B    basis set group =>   1
Atom   7B    basis set group =>   1
Atom   8B    basis set group =>   1
Atom   9B    basis set group =>   1
Atom  10B    basis set group =>   1
Atom  11B    basis set group =>   1
---------------------------------
AUXILIARY/J BASIS SET INFORMATION
---------------------------------
There are 1 groups of distinct atoms

 Group   1 Type B   : 8s3p3d contracted to 6s3p3d pattern {311111/111/111}

Atom   0B    basis set group =>   1
Atom   1B    basis set group =>   1
Atom   2B    basis set group =>   1
Atom   3B    basis set group =>   1
Atom   4B    basis set group =>   1
Atom   5B    basis set group =>   1
Atom   6B    basis set group =>   1
Atom   7B    basis set group =>   1
Atom   8B    basis set group =>   1
Atom   9B    basis set group =>   1
Atom  10B    basis set group =>   1
Atom  11B    basis set group =>   1


           ************************************************************
           *        Program running with 8 parallel MPI-processes     *
           *              working on a common directory               *
           ************************************************************
------------------------------------------------------------------------------
                             ORCA STARTUP CALCULATIONS
                           -- RI-GTO INTEGRALS CHOSEN --
------------------------------------------------------------------------------
------------------------------------------------------------------------------
                   ___                                                        
                  /   \      - P O W E R E D   B Y -                         
                 /     \                                                     
                 |  |  |   _    _      __       _____    __    __             
                 |  |  |  | |  | |    /  \     |  _  \  |  |  /  |          
                  \  \/   | |  | |   /    \    | | | |  |  | /  /          
                 / \  \   | |__| |  /  /\  \   | |_| |  |  |/  /          
                |  |  |   |  __  | /  /__\  \  |    /   |      \           
                |  |  |   | |  | | |   __   |  |    \   |  |\   \          
                \     /   | |  | | |  |  |  |  | |\  \  |  | \   \       
                 \___/    |_|  |_| |__|  |__|  |_| \__\ |__|  \__/        
                                                                              
                      - O R C A' S   B I G   F R I E N D -                    
                                      &                                       
                       - I N T E G R A L  F E E D E R -                       
                                                                              
 v1 FN, 2020, v2 2021, v3 2022-2024                                           
------------------------------------------------------------------------------


----------------------
SHARK INTEGRAL PACKAGE
----------------------

Number of atoms                             ...     12
Number of basis functions                   ...    228
Number of shells                            ...    108
Maximum angular momentum                    ...      2
Integral batch strategy                     ... SHARK/LIBINT Hybrid
RI-J (if used) integral strategy            ... SPLIT-RIJ (Revised 2003 algorithm where possible)
Printlevel                                  ...      1
Contraction scheme used                     ... SEGMENTED contraction
Prescreening option                         ... SCHWARTZ
   Thresh                                   ... 2.500e-11
   Tcut                                     ... 2.500e-12
   Tpresel                                  ... 2.500e-12 
Coulomb Range Separation                    ... NOT USED
Exchange Range Separation                   ... NOT USED
Multipole approximations                    ... NOT USED
Finite Nucleus Model                        ... NOT USED
CABS basis                                  ... NOT available
Auxiliary Coulomb fitting basis             ... AVAILABLE
   # of basis functions in Aux-J            ...    360
   # of shells in Aux-J                     ...    144
   Maximum angular momentum in Aux-J        ...      2
Auxiliary J/K fitting basis                 ... NOT available
Auxiliary Correlation fitting basis         ... NOT available
Auxiliary 'external' fitting basis          ... NOT available

Checking pre-screening integrals            ... done (  0.0 sec) Dimension = 108
   => SHARK Basis and OBASIS are compatible. Storing Pre-screening
Shell pair information
Shell pair cut-off parameter TPreSel        ...   2.5e-12
Total number of shell pairs                 ...      5886
Shell pairs after pre-screening             ...      5688
Total number of primitive shell pairs       ...     23700
Primitive shell pairs kept                  ...     16977
          la=0 lb=0:   1660 shell pairs
          la=1 lb=0:   2152 shell pairs
          la=1 lb=1:    666 shell pairs
          la=2 lb=0:    700 shell pairs
          la=2 lb=1:    432 shell pairs
          la=2 lb=2:     78 shell pairs

Checking whether 4 symmetric matrices of dimension 228 fit in memory
:Max Core in MB      =   1500.00
 MB in use           =      7.43
 MB left             =   1492.57
 MB needed           =      0.80
 Data fit in memory  = YES
Calculating RI/J V-Matrix + Cholesky decomp.... done (  0.0 sec)
Calculating Nuclear repulsion               ... done (  0.0 sec) ENN=    382.740404863442 Eh

Diagonalization of the overlap matrix:
Smallest eigenvalue                        ... 3.962e-06
Time for diagonalization                   ...    0.003 sec
Threshold for overlap eigenvalues          ... 1.000e-07
Number of eigenvalues below threshold      ... 0
Time for construction of square roots      ...    0.002 sec
Total time needed                          ...    0.006 sec

-------------------
DFT GRID GENERATION
-------------------

General Integration Accuracy     IntAcc      ... 4.388
Radial Grid Type                 RadialGrid  ... OptM3 with GC (2021)
Angular Grid (max. ang.)         AngularGrid ... 4 (Lebedev-302)
Angular grid pruning method      GridPruning ... 4 (adaptive)
Weight generation scheme         WeightScheme... mBecke (2022)
Basis function cutoff            BFCut       ... 1.0000e-11
Integration weight cutoff        WCut        ... 1.0000e-14
Partially contracted basis set               ... off
Rotationally invariant grid construction     ... off
Angular grids for H and He will be reduced by one unit

Total number of grid points                  ...    70013
Total number of batches                      ...     1099
Average number of points per batch           ...       63
Average number of grid points per atom       ...     5834
Grids setup in   0.4 sec
Initializing property integral containers    ... done (  0.0 sec)

SHARK setup successfully completed in   0.5 seconds

Maximum memory used throughout the entire STARTUP-calculation: 20.5 MB


           ************************************************************
           *        Program running with 8 parallel MPI-processes     *
           *              working on a common directory               *
           ************************************************************
-------------------------------------------------------------------------------
                                 ORCA GUESS
                   Start orbitals & Density for SCF / CASSCF
-------------------------------------------------------------------------------

------------
SCF SETTINGS
------------
Hamiltonian:
 Density Functional     Method          .... DFT(GTOs)
  Functional kind                       .... Exchange
  Functional name                       .... Re-regularized SCAN exchange by Furness et al
  Functional family                     .... MGGA
  Functional refs                              
    [ 0] J. W. Furness, A. D. Kaplan, J. Ning, J. P. Perdew, and J. Sun.,  J. Phys. Chem. Lett. 11, 8208-8215 (2020), doi: 10.1021/acs.jpclett.0c02405
    [ 1] J. W. Furness, A. D. Kaplan, J. Ning, J. P. Perdew, and J. Sun.,  J. Phys. Chem. Lett. 11, 9248-9248 (2020), doi: 10.1021/acs.jpclett.0c03077
  Functional external parameters        .... 6
    Parameter  0 _c1        =  6.670000e-01 : c1 parameter        
    Parameter  1 _c2        =  8.000000e-01 : c2 parameter        
    Parameter  2 _d         =  1.240000e+00 : d parameter         
    Parameter  3 _k1        =  6.500000e-02 : k1 parameter        
    Parameter  4 _eta       =  1.000000e-03 : eta parameter       
    Parameter  5 _dp2       =  3.610000e-01 : dp2 parameter       
  Functional kind                       .... Correlation
  Functional name                       .... Re-regularized SCAN correlation by Furness et al
  Functional family                     .... MGGA
  Functional refs                              
    [ 0] J. W. Furness, A. D. Kaplan, J. Ning, J. P. Perdew, and J. Sun.,  J. Phys. Chem. Lett. 11, 8208-8215 (2020), doi: 10.1021/acs.jpclett.0c02405
    [ 1] J. W. Furness, A. D. Kaplan, J. Ning, J. P. Perdew, and J. Sun.,  J. Phys. Chem. Lett. 11, 9248-9248 (2020), doi: 10.1021/acs.jpclett.0c03077
  Functional external parameters        .... 1
    Parameter  0 _eta       =  1.000000e-03 : Regularization parameter
 Gradients option       PostSCFGGA      .... off
 RI-approximation to the Coulomb term is turned on
   Number of AuxJ basis functions       .... 360


General Settings:
 Integral files         IntName         .... b12_hexagonal_prism_m3_spinfreq
 Hartree-Fock type      HFTyp           .... UHF
 Total Charge           Charge          ....    0
 Multiplicity           Mult            ....    3
 Number of Electrons    NEL             ....   60
 Basis Dimension        Dim             ....  228
 Nuclear Repulsion      ENuc            ....    382.7404048634 Eh

Convergence Acceleration:
 AO-DIIS                CNVDIIS         .... on
   Start iteration      DIISMaxIt       ....    12
   Startup error        DIISStart       ....  0.200000
   # of expansion vecs  DIISMaxEq       ....     5
   Bias factor          DIISBfac        ....   1.050
   Max. coefficient     DIISMaxC        ....  10.000
 MO-DIIS                CNVKDIIS        .... off
 Trust-Rad. Augm. Hess. CNVTRAH         .... auto
   Auto Start mean grad. ratio tolernc. ....  1.125000
   Auto Start start iteration           ....    50
   Auto Start num. interpolation iter.  ....    10
   Max. Number of Micro iterations      ....    24
   Max. Number of Macro iterations      .... Maxiter - #DIIS iter
   Number of Davidson start vectors     ....     2
   Converg. threshold    (grad. norm)   ....   1.000e-05
   Grad. Scal. Fac. for Micro threshold ....   0.100
   Minimum threshold for Micro iter.    ....   1.000e-02
   NR start threshold (gradient norm)   ....   1.000e-04
   Initial trust radius                 ....   0.400
   Minimum AH scaling param. (alpha)    ....   1.000
   Maximum AH scaling param. (alpha)    .... 1000.000
   Quad. conv. algorithm                .... NR
   White noise on init. David. guess    .... on
   Maximum white noise                  ....   0.010
   Pseudo random numbers                .... off
   Inactive MOs                         .... canonical
   Orbital update algorithm             .... Taylor
   Preconditioner                       .... Diag
   Full preconditioner red. dimension   ....   250
   COSX micro iterations for RIJONX calc.... off
 SOSCF                 CNVSOSCF           .... on
   Start iteration     SOSCFMaxIt         ....   150
   Startup grad/error  SOSCFStart         ....  0.003300
   Hessian update      SOSCFHessUp        .... L-BFGS
   Autom. constraints  SOSCFAutoConstrain .... off
 Level Shifting         CNVShift        .... on
   Level shift para.    LevelShift      ....    0.2500
   Turn off err/grad.   ShiftErr        ....    0.0010
 Zerner damping         CNVZerner       .... off
 Static damping         CNVDamp         .... on
   Fraction old density DampFac         ....    0.7000
   Max. Damping (<1)    DampMax         ....    0.9800
   Min. Damping (>=0)   DampMin         ....    0.0000
   Turn off err/grad.   DampErr         ....    0.1000

SCF Procedure:
 Maximum # iterations   MaxIter         ....   125
 SCF integral mode      SCFMode         .... Direct
   Integral package                     .... SHARK and LIBINT hybrid scheme
 Reset frequency        DirectResetFreq ....    20
 Integral Threshold     Thresh          ....  2.500e-11 Eh
 Primitive CutOff       TCut            ....  2.500e-12 Eh

Convergence Tolerance:
 Convergence Check Mode ConvCheckMode   .... Total+1el-Energy
 Convergence forced     ConvForced      .... 0
 Energy Change          TolE            ....  1.000e-08 Eh
 1-El. energy change                    ....  1.000e-05 Eh
 Orbital Gradient       TolG            ....  1.000e-05
 Orbital Rotation angle TolX            ....  1.000e-05
 DIIS Error             TolErr          ....  5.000e-07

------------------------------
INITIAL GUESS: MODEL POTENTIAL
------------------------------
Loading Hartree-Fock densities                     ... done
Calculating cut-offs                               ... done
Initializing the effective Hamiltonian             ... done
Setting up the integral package (SHARK)            ... done
Starting the Coulomb interaction                   ... done (   0.1 sec)
Making the grid                                    ... done (   0.1 sec)
Mapping shells                                     ... done
Starting the XC term evaluation                    ... done (   0.1 sec)
  promolecular density results
     # of electrons  =     60.005174463
     EX              =    -45.872000937
     EC              =     -1.918315104
     EX+EC           =    -47.790316041
Transforming the Hamiltonian                       ... done (   0.0 sec)
Diagonalizing the Hamiltonian                      ... done (   0.0 sec)
Back transforming the eigenvectors                 ... done (   0.0 sec)
Now organizing SCF variables                       ... done
                      ------------------
                      INITIAL GUESS DONE (   0.3 sec)
                      ------------------
             **** ENERGY FILE WAS UPDATED (b12_hexagonal_prism_m3_spinfreq.en.tmp) ****
Finished Guess after   0.4 sec
Maximum memory used throughout the entire GUESS-calculation: 10.9 MB


           ************************************************************
           *        Program running with 8 parallel MPI-processes     *
           *              working on a common directory               *
           ************************************************************

-------------------------------------------------------------------------------------------
                                      ORCA LEAN-SCF
                              memory conserving SCF solver
-------------------------------------------------------------------------------------------

----------------------------------------D-I-I-S--------------------------------------------
Iteration    Energy (Eh)           Delta-E    RMSDP     MaxDP     DIISErr   Damp  Time(sec)
-------------------------------------------------------------------------------------------
               ***  Starting incremental Fock matrix formation  ***
    1    -297.2904155256050558     0.00e+00  1.21e-01  2.47e+00  7.23e-02  0.700   0.9
Warning: op=0 Small HOMO/LUMO gap (   0.051) - skipping pre-diagonalization
         Will do a full diagonalization
    2    -297.5353560316446533    -2.45e-01  8.89e-02  1.79e+00  3.32e-02  0.700   0.8
                               ***Turning on AO-DIIS***
    3    -297.6199664411462322    -8.46e-02  3.73e-02  7.28e-01  1.34e-02  0.700   0.8
    4    -297.6682763236702272    -4.83e-02  5.44e-02  1.06e+00  6.50e-03  0.000   0.7
    5    -297.7810954600637956    -1.13e-01  8.97e-03  1.28e-01  5.00e-03  0.000   0.8
                              *** Initializing SOSCF ***
---------------------------------------S-O-S-C-F--------------------------------------
Iteration    Energy (Eh)           Delta-E    RMSDP     MaxDP     MaxGrad    Time(sec)
--------------------------------------------------------------------------------------
    6    -297.7838190562592331    -2.72e-03  4.31e-03  6.32e-02  1.79e-03     0.8
               *** Restarting incremental Fock matrix formation ***
    7    -297.7842447976907465    -4.26e-04  3.49e-03  5.45e-02  1.56e-03     0.9
    8    -297.7842920755870750    -4.73e-05  4.60e-03  9.74e-02  2.70e-03     0.7
    9    -297.7844396715407242    -1.48e-04  3.01e-03  6.71e-02  1.43e-03     0.7
   10    -297.7844746170811163    -3.49e-05  1.20e-03  1.96e-02  7.60e-04     0.6
   11    -297.7845160208051425    -4.14e-05  1.23e-03  2.32e-02  3.56e-04     0.6
   12    -297.7845229054016158    -6.88e-06  1.12e-03  2.15e-02  3.71e-04     0.7
   13    -297.7845284176929113    -5.51e-06  2.57e-04  3.50e-03  1.53e-04     0.6
   14    -297.7845293373899835    -9.20e-07  9.78e-05  1.68e-03  8.16e-05     0.6
   15    -297.7845297874086441    -4.50e-07  1.39e-04  2.70e-03  3.24e-05     0.6
   16    -297.7845298406051029    -5.32e-08  3.12e-04  6.76e-03  1.46e-05     0.6
   17    -297.7845298544334014    -1.38e-08  3.86e-05  5.85e-04  8.59e-06     0.6
   18    -297.7845298567183931    -2.28e-09  1.27e-04  2.12e-03  3.40e-06     0.7
                 **** Energy Check signals convergence ****

               *****************************************************
               *                     SUCCESS                       *
               *           SCF CONVERGED AFTER  18 CYCLES          *
               *****************************************************

             **** ENERGY FILE WAS UPDATED (b12_hexagonal_prism_m3_spinfreq.en.tmp) ****

----------------
TOTAL SCF ENERGY
----------------

Total Energy       :       -297.78452985700216 Eh           -8103.12901 eV

Components:
Nuclear Repulsion  :        382.74040486344228 Eh           10414.89590 eV
Electronic Energy  :       -680.52493472044443 Eh          -18518.02491 eV
One Electron Energy:      -1153.83023360768357 Eh          -31397.31687 eV
Two Electron Energy:        473.30529888723913 Eh           12879.29195 eV

Virial components:
Potential Energy   :       -594.13564482638685 Eh          -16167.25282 eV
Kinetic Energy     :        296.35111496938464 Eh            8064.12381 eV
Virial Ratio       :          2.00483688035986

DFT components:
N(Alpha)           :       31.000266463435 electrons
N(Beta)            :       29.000227769643 electrons
N(Total)           :       60.000494233079 electrons
E(X)               :      -46.839066166481 Eh       
E(C)               :       -1.920854093642 Eh       
E(XC)              :      -48.759920260123 Eh       

---------------
SCF CONVERGENCE
---------------

  Last Energy change         ...    2.2850e-09  Tolerance :   1.0000e-08
  Last MAX-Density change    ...    2.1158e-03  Tolerance :   1.0000e-07
  Last RMS-Density change    ...    1.2670e-04  Tolerance :   5.0000e-09
  Last DIIS Error            ...    1.7875e-03  Tolerance :   5.0000e-07
  Last Orbital Gradient      ...    3.3974e-06  Tolerance :   1.0000e-05
  Last Orbital Rotation      ...    2.5770e-05  Tolerance :   1.0000e-05


----------------------
UHF SPIN CONTAMINATION
----------------------

Warning: in a DFT calculation there is little theoretical justification to 
         calculate <S**2> as in Hartree-Fock theory. We will do it anyways
         but you should keep in mind that the values have only limited relevance

Expectation value of <S**2>     :     2.056074
Ideal value S*(S+1) for S=1.0   :     2.000000
Deviation                       :     0.056074

----------------
ORBITAL ENERGIES
----------------
                 SPIN UP ORBITALS
  NO   OCC          E(Eh)            E(eV) 
   0   1.0000      -6.687890      -181.9867 
   1   1.0000      -6.687835      -181.9852 
   2   1.0000      -6.686556      -181.9504 
   3   1.0000      -6.686545      -181.9501 
   4   1.0000      -6.672593      -181.5705 
   5   1.0000      -6.672536      -181.5689 
   6   1.0000      -6.669260      -181.4798 
   7   1.0000      -6.668600      -181.4618 
   8   1.0000      -6.663321      -181.3182 
   9   1.0000      -6.663301      -181.3176 
  10   1.0000      -6.656361      -181.1288 
  11   1.0000      -6.655966      -181.1180 
  12   1.0000      -0.809078       -22.0161 
  13   1.0000      -0.729523       -19.8513 
  14   1.0000      -0.582566       -15.8524 
  15   1.0000      -0.582101       -15.8398 
  16   1.0000      -0.549262       -14.9462 
  17   1.0000      -0.465738       -12.6734 
  18   1.0000      -0.455612       -12.3978 
  19   1.0000      -0.380935       -10.3658 
  20   1.0000      -0.364003        -9.9050 
  21   1.0000      -0.361514        -9.8373 
  22   1.0000      -0.345912        -9.4127 
  23   1.0000      -0.345119        -9.3912 
  24   1.0000      -0.337068        -9.1721 
  25   1.0000      -0.320201        -8.7131 
  26   1.0000      -0.302055        -8.2193 
  27   1.0000      -0.242003        -6.5852 
  28   1.0000      -0.240135        -6.5344 
  29   1.0000      -0.223075        -6.0702 
  30   1.0000      -0.202532        -5.5112 
  31   0.0000      -0.131591        -3.5808 
  32   0.0000      -0.124691        -3.3930 
  33   0.0000      -0.093773        -2.5517 
  34   0.0000      -0.072644        -1.9767 
  35   0.0000      -0.060835        -1.6554 
  36   0.0000      -0.059213        -1.6113 
  37   0.0000      -0.016838        -0.4582 
  38   0.0000      -0.004961        -0.1350 
  39   0.0000       0.001044         0.0284 
  40   0.0000       0.002151         0.0585 
  41   0.0000       0.056186         1.5289 

                 SPIN DOWN ORBITALS
  NO   OCC          E(Eh)            E(eV) 
   0   1.0000      -6.685183      -181.9131 
   1   1.0000      -6.685131      -181.9117 
   2   1.0000      -6.682014      -181.8268 
   3   1.0000      -6.682008      -181.8267 
   4   1.0000      -6.671499      -181.5407 
   5   1.0000      -6.671442      -181.5392 
   6   1.0000      -6.665783      -181.3852 
   7   1.0000      -6.665120      -181.3671 
   8   1.0000      -6.664698      -181.3557 
   9   1.0000      -6.664677      -181.3551 
  10   1.0000      -6.652864      -181.0336 
  11   1.0000      -6.652465      -181.0228 
  12   1.0000      -0.801476       -21.8093 
  13   1.0000      -0.724548       -19.7159 
  14   1.0000      -0.580887       -15.8067 
  15   1.0000      -0.568679       -15.4745 
  16   1.0000      -0.540528       -14.7085 
  17   1.0000      -0.459308       -12.4984 
  18   1.0000      -0.447806       -12.1854 
  19   1.0000      -0.368302       -10.0220 
  20   1.0000      -0.361013        -9.8237 
  21   1.0000      -0.343224        -9.3396 
  22   1.0000      -0.341203        -9.2846 
  23   1.0000      -0.330280        -8.9874 
  24   1.0000      -0.329599        -8.9688 
  25   1.0000      -0.311638        -8.4801 
  26   1.0000      -0.276501        -7.5240 
  27   1.0000      -0.238437        -6.4882 
  28   1.0000      -0.219367        -5.9693 
  29   0.0000      -0.184532        -5.0214 
  30   0.0000      -0.157477        -4.2852 
  31   0.0000      -0.093111        -2.5337 
  32   0.0000      -0.082655        -2.2491 
  33   0.0000      -0.069039        -1.8786 
  34   0.0000      -0.048598        -1.3224 
  35   0.0000      -0.042287        -1.1507 
  36   0.0000      -0.040047        -1.0897 
  37   0.0000      -0.009182        -0.2499 
  38   0.0000       0.005857         0.1594 
  39   0.0000       0.008073         0.2197 
*Only the first 10 virtual orbitals were printed.

                    ********************************
                    * MULLIKEN POPULATION ANALYSIS *
                    ********************************

--------------------------------------------
MULLIKEN ATOMIC CHARGES AND SPIN POPULATIONS
--------------------------------------------
   0 B :    0.156547    0.489051
   1 B :   -0.508948   -0.138122
   2 B :    0.405929   -0.133178
   3 B :    0.057687    0.540541
   4 B :   -0.452829    0.314418
   5 B :    0.341561   -0.072598
   6 B :    0.156798    0.489115
   7 B :    0.341668   -0.072577
   8 B :   -0.452730    0.314442
   9 B :    0.057386    0.540148
  10 B :    0.405651   -0.133222
  11 B :   -0.508719   -0.138017
Sum of atomic charges         :    0.0000000
Sum of atomic spin populations:    2.0000000

-----------------------------------------------------
MULLIKEN REDUCED ORBITAL CHARGES AND SPIN POPULATIONS
-----------------------------------------------------
CHARGE
  0 B s       :     2.521419  s :     2.521419
      pz      :     0.704415  p :     2.280185
      px      :     0.871175
      py      :     0.704595
      dz2     :     0.008344  d :     0.041849
      dxz     :     0.009600
      dyz     :     0.004314
      dx2y2   :     0.009997
      dxy     :     0.009594

  1 B s       :     3.541448  s :     3.541448
      pz      :     0.526106  p :     1.932123
      px      :     0.879838
      py      :     0.526179
      dz2     :     0.008075  d :     0.035377
      dxz     :     0.007494
      dyz     :     0.003873
      dx2y2   :     0.008448
      dxy     :     0.007486

  2 B s       :     2.445283  s :     2.445283
      pz      :     0.675309  p :     2.107229
      px      :     0.757065
      py      :     0.674855
      dz2     :     0.009452  d :     0.041559
      dxz     :     0.007362
      dyz     :     0.007719
      dx2y2   :     0.009671
      dxy     :     0.007355

  3 B s       :     2.673929  s :     2.673929
      pz      :     0.703617  p :     2.227255
      px      :     0.819621
      py      :     0.704018
      dz2     :     0.008515  d :     0.041129
      dxz     :     0.009792
      dyz     :     0.003797
      dx2y2   :     0.009239
      dxy     :     0.009786

  4 B s       :     3.539528  s :     3.539528
      pz      :     0.484724  p :     1.878882
      px      :     0.909112
      py      :     0.485046
      dz2     :     0.007596  d :     0.034419
      dxz     :     0.008124
      dyz     :     0.003419
      dx2y2   :     0.007164
      dxy     :     0.008116

  5 B s       :     2.452570  s :     2.452570
      pz      :     0.683448  p :     2.159153
      px      :     0.793118
      py      :     0.682587
      dz2     :     0.010715  d :     0.046715
      dxz     :     0.008124
      dyz     :     0.008619
      dx2y2   :     0.011152
      dxy     :     0.008105

  6 B s       :     2.521245  s :     2.521245
      pz      :     0.704357  p :     2.280105
      px      :     0.871558
      py      :     0.704190
      dz2     :     0.008348  d :     0.041853
      dxz     :     0.009578
      dyz     :     0.004339
      dx2y2   :     0.010004
      dxy     :     0.009584

  7 B s       :     2.452310  s :     2.452310
      pz      :     0.683298  p :     2.159302
      px      :     0.791830
      py      :     0.684173
      dz2     :     0.010715  d :     0.046720
      dxz     :     0.008105
      dyz     :     0.008637
      dx2y2   :     0.011138
      dxy     :     0.008124

  8 B s       :     3.539434  s :     3.539434
      pz      :     0.484836  p :     1.878878
      px      :     0.909482
      py      :     0.484560
      dz2     :     0.007600  d :     0.034417
      dxz     :     0.008132
      dyz     :     0.003410
      dx2y2   :     0.007135
      dxy     :     0.008140

  9 B s       :     2.674273  s :     2.674273
      pz      :     0.703759  p :     2.227216
      px      :     0.820089
      py      :     0.703368
      dz2     :     0.008512  d :     0.041126
      dxz     :     0.009771
      dyz     :     0.003817
      dx2y2   :     0.009249
      dxy     :     0.009778

 10 B s       :     2.445987  s :     2.445987
      pz      :     0.675310  p :     2.106811
      px      :     0.755701
      py      :     0.675800
      dz2     :     0.009453  d :     0.041552
      dxz     :     0.007345
      dyz     :     0.007734
      dx2y2   :     0.009668
      dxy     :     0.007353

 11 B s       :     3.541423  s :     3.541423
      pz      :     0.526050  p :     1.931923
      px      :     0.879895
      py      :     0.525977
      dz2     :     0.008071  d :     0.035374
      dxz     :     0.007508
      dyz     :     0.003859
      dx2y2   :     0.008420
      dxy     :     0.007516


SPIN
  0 B s       :     0.240026  s :     0.240026
      pz      :     0.040905  p :     0.250914
      px      :     0.169432
      py      :     0.040576
      dz2     :    -0.000401  d :    -0.001889
      dxz     :    -0.000327
      dyz     :    -0.000001
      dx2y2   :    -0.000841
      dxy     :    -0.000319

  1 B s       :    -0.019493  s :    -0.019493
      pz      :    -0.044833  p :    -0.120694
      px      :    -0.031049
      py      :    -0.044812
      dz2     :     0.000468  d :     0.002064
      dxz     :     0.000570
      dyz     :    -0.000020
      dx2y2   :     0.000478
      dxy     :     0.000569

  2 B s       :    -0.162813  s :    -0.162813
      pz      :     0.044819  p :     0.028139
      px      :    -0.061808
      py      :     0.045128
      dz2     :     0.001065  d :     0.001496
      dxz     :     0.000483
      dyz     :    -0.000732
      dx2y2   :     0.000196
      dxy     :     0.000484

  3 B s       :     0.267529  s :     0.267529
      pz      :     0.061188  p :     0.273345
      px      :     0.151565
      py      :     0.060592
      dz2     :    -0.000021  d :    -0.000333
      dxz     :    -0.000615
      dyz     :     0.000750
      dx2y2   :     0.000156
      dxy     :    -0.000603

  4 B s       :     0.018749  s :     0.018749
      pz      :     0.152798  p :     0.296052
      px      :    -0.009394
      py      :     0.152647
      dz2     :    -0.000454  d :    -0.000382
      dxz     :     0.000268
      dyz     :    -0.000040
      dx2y2   :    -0.000421
      dxy     :     0.000265

  5 B s       :    -0.129357  s :    -0.129357
      pz      :     0.066862  p :     0.054911
      px      :    -0.079158
      py      :     0.067207
      dz2     :     0.000042  d :     0.001849
      dxz     :     0.000762
      dyz     :     0.000258
      dx2y2   :     0.000021
      dxy     :     0.000766

  6 B s       :     0.240201  s :     0.240201
      pz      :     0.040971  p :     0.250802
      px      :     0.168522
      py      :     0.041309
      dz2     :    -0.000400  d :    -0.001889
      dxz     :    -0.000326
      dyz     :    -0.000004
      dx2y2   :    -0.000824
      dxy     :    -0.000334

  7 B s       :    -0.129317  s :    -0.129317
      pz      :     0.066963  p :     0.054890
      px      :    -0.078663
      py      :     0.066590
      dz2     :     0.000041  d :     0.001850
      dxz     :     0.000753
      dyz     :     0.000268
      dx2y2   :     0.000040
      dxy     :     0.000748

  8 B s       :     0.018764  s :     0.018764
      pz      :     0.152715  p :     0.296062
      px      :    -0.009459
      py      :     0.152806
      dz2     :    -0.000454  d :    -0.000384
      dxz     :     0.000265
      dyz     :    -0.000038
      dx2y2   :    -0.000425
      dxy     :     0.000268

  9 B s       :     0.267230  s :     0.267230
      pz      :     0.061008  p :     0.273248
      px      :     0.150658
      py      :     0.061582
      dz2     :    -0.000022  d :    -0.000330
      dxz     :    -0.000603
      dyz     :     0.000741
      dx2y2   :     0.000169
      dxy     :    -0.000615

 10 B s       :    -0.162928  s :    -0.162928
      pz      :     0.044760  p :     0.028211
      px      :    -0.061006
      py      :     0.044457
      dz2     :     0.001064  d :     0.001495
      dxz     :     0.000482
      dyz     :    -0.000731
      dx2y2   :     0.000199
      dxy     :     0.000481

 11 B s       :    -0.019487  s :    -0.019487
      pz      :    -0.044839  p :    -0.120594
      px      :    -0.030872
      py      :    -0.044882
      dz2     :     0.000467  d :     0.002063
      dxz     :     0.000567
      dyz     :    -0.000017
      dx2y2   :     0.000478
      dxy     :     0.000569



                     *******************************
                     * LOEWDIN POPULATION ANALYSIS *
                     *******************************

-------------------------------------------
LOEWDIN ATOMIC CHARGES AND SPIN POPULATIONS
-------------------------------------------
   0 B :   -0.045487    0.228634
   1 B :    0.039461   -0.059262
   2 B :    0.005811    0.146751
   3 B :   -0.039456    0.266685
   4 B :    0.084947    0.318863
   5 B :   -0.045340    0.098426
   6 B :   -0.045470    0.228510
   7 B :   -0.045439    0.098400
   8 B :    0.085008    0.318900
   9 B :   -0.039481    0.266575
  10 B :    0.005997    0.146790
  11 B :    0.039450   -0.059272

----------------------------------------------------
LOEWDIN REDUCED ORBITAL CHARGES AND SPIN POPULATIONS
----------------------------------------------------
CHARGE
  0 B s       :     2.681634  s :     2.681634
      pz      :     0.795747  p :     2.281404
      px      :     0.689508
      py      :     0.796149
      dz2     :     0.016350  d :     0.082448
      dxz     :     0.018931
      dyz     :     0.008292
      dx2y2   :     0.019935
      dxy     :     0.018940

  1 B s       :     2.738356  s :     2.738356
      pz      :     0.613958  p :     2.151797
      px      :     0.923777
      py      :     0.614062
      dz2     :     0.015960  d :     0.070386
      dxz     :     0.014819
      dyz     :     0.008016
      dx2y2   :     0.016791
      dxy     :     0.014800

  2 B s       :     2.689527  s :     2.689527
      pz      :     0.716853  p :     2.226328
      px      :     0.793292
      py      :     0.716184
      dz2     :     0.018697  d :     0.078334
      dxz     :     0.014119
      dyz     :     0.012889
      dx2y2   :     0.018532
      dxy     :     0.014097

  3 B s       :     2.682409  s :     2.682409
      pz      :     0.783705  p :     2.276809
      px      :     0.708765
      py      :     0.784339
      dz2     :     0.016553  d :     0.080238
      dxz     :     0.018565
      dyz     :     0.007762
      dx2y2   :     0.018775
      dxy     :     0.018584

  4 B s       :     2.727723  s :     2.727723
      pz      :     0.581518  p :     2.118713
      px      :     0.955375
      py      :     0.581819
      dz2     :     0.014896  d :     0.068617
      dxz     :     0.016080
      dyz     :     0.007115
      dx2y2   :     0.014473
      dxy     :     0.016053

  5 B s       :     2.654894  s :     2.654894
      pz      :     0.735154  p :     2.299367
      px      :     0.829940
      py      :     0.734273
      dz2     :     0.020455  d :     0.091079
      dxz     :     0.016276
      dyz     :     0.016428
      dx2y2   :     0.021695
      dxy     :     0.016226

  6 B s       :     2.681629  s :     2.681629
      pz      :     0.795654  p :     2.281388
      px      :     0.690469
      py      :     0.795264
      dz2     :     0.016362  d :     0.082454
      dxz     :     0.018887
      dyz     :     0.008336
      dx2y2   :     0.019991
      dxy     :     0.018878

  7 B s       :     2.654854  s :     2.654854
      pz      :     0.734994  p :     2.299491
      px      :     0.828607
      py      :     0.735890
      dz2     :     0.020459  d :     0.091094
      dxz     :     0.016240
      dyz     :     0.016461
      dx2y2   :     0.021643
      dxy     :     0.016290

  8 B s       :     2.727744  s :     2.727744
      pz      :     0.581614  p :     2.118633
      px      :     0.955683
      py      :     0.581335
      dz2     :     0.014906  d :     0.068615
      dxz     :     0.016092
      dyz     :     0.007099
      dx2y2   :     0.014400
      dxy     :     0.016119

  9 B s       :     2.682400  s :     2.682400
      pz      :     0.783884  p :     2.276847
      px      :     0.709723
      py      :     0.783240
      dz2     :     0.016543  d :     0.080234
      dxz     :     0.018532
      dyz     :     0.007796
      dx2y2   :     0.018850
      dxy     :     0.018513

 10 B s       :     2.689608  s :     2.689608
      pz      :     0.716942  p :     2.226079
      px      :     0.791510
      py      :     0.717627
      dz2     :     0.018695  d :     0.078316
      dxz     :     0.014084
      dyz     :     0.012921
      dx2y2   :     0.018508
      dxy     :     0.014107

 11 B s       :     2.738336  s :     2.738336
      pz      :     0.613914  p :     2.151832
      px      :     0.924096
      py      :     0.613822
      dz2     :     0.015951  d :     0.070381
      dxz     :     0.014845
      dyz     :     0.007992
      dx2y2   :     0.016728
      dxy     :     0.014865


SPIN
  0 B s       :     0.050187  s :     0.050187
      pz      :     0.024731  p :     0.180560
      px      :     0.131337
      py      :     0.024492
      dz2     :    -0.000429  d :    -0.002113
      dxz     :    -0.000442
      dyz     :    -0.000013
      dx2y2   :    -0.000802
      dxy     :    -0.000426

  1 B s       :    -0.020199  s :    -0.020199
      pz      :    -0.021054  p :    -0.043495
      px      :    -0.001444
      py      :    -0.020997
      dz2     :     0.000731  d :     0.004431
      dxz     :     0.001379
      dyz     :    -0.000029
      dx2y2   :     0.000970
      dxy     :     0.001379

  2 B s       :     0.020483  s :     0.020483
      pz      :     0.048183  p :     0.123448
      px      :     0.027001
      py      :     0.048265
      dz2     :     0.001897  d :     0.002819
      dxz     :     0.000870
      dyz     :    -0.001083
      dx2y2   :     0.000264
      dxy     :     0.000871

  3 B s       :     0.046306  s :     0.046306
      pz      :     0.040457  p :     0.217691
      px      :     0.137238
      py      :     0.039995
      dz2     :     0.000554  d :     0.002688
      dxz     :    -0.000853
      dyz     :     0.001983
      dx2y2   :     0.001833
      dxy     :    -0.000829

  4 B s       :     0.040652  s :     0.040652
      pz      :     0.133517  p :     0.278091
      px      :     0.011171
      py      :     0.133403
      dz2     :    -0.000498  d :     0.000120
      dxz     :     0.000935
      dyz     :    -0.000601
      dx2y2   :    -0.000646
      dxy     :     0.000931

  5 B s       :     0.008884  s :     0.008884
      pz      :     0.030343  p :     0.085152
      px      :     0.024390
      py      :     0.030418
      dz2     :     0.000157  d :     0.004391
      dxz     :     0.001465
      dyz     :     0.001075
      dx2y2   :     0.000221
      dxy     :     0.001473

  6 B s       :     0.050158  s :     0.050158
      pz      :     0.024780  p :     0.180464
      px      :     0.130653
      py      :     0.025031
      dz2     :    -0.000427  d :    -0.002112
      dxz     :    -0.000444
      dyz     :    -0.000016
      dx2y2   :    -0.000764
      dxy     :    -0.000460

  7 B s       :     0.008875  s :     0.008875
      pz      :     0.030359  p :     0.085132
      px      :     0.024505
      py      :     0.030268
      dz2     :     0.000155  d :     0.004393
      dxz     :     0.001449
      dyz     :     0.001093
      dx2y2   :     0.000256
      dxy     :     0.001440

  8 B s       :     0.040664  s :     0.040664
      pz      :     0.133427  p :     0.278118
      px      :     0.011204
      py      :     0.133487
      dz2     :    -0.000498  d :     0.000118
      dxz     :     0.000926
      dyz     :    -0.000593
      dx2y2   :    -0.000646
      dxy     :     0.000929

  9 B s       :     0.046276  s :     0.046276
      pz      :     0.040311  p :     0.217608
      px      :     0.136546
      py      :     0.040751
      dz2     :     0.000552  d :     0.002692
      dxz     :    -0.000836
      dyz     :     0.001972
      dx2y2   :     0.001863
      dxy     :    -0.000859

 10 B s       :     0.020497  s :     0.020497
      pz      :     0.048208  p :     0.123475
      px      :     0.027137
      py      :     0.048131
      dz2     :     0.001894  d :     0.002817
      dxz     :     0.000867
      dyz     :    -0.001080
      dx2y2   :     0.000270
      dxy     :     0.000866

 11 B s       :    -0.020193  s :    -0.020193
      pz      :    -0.021070  p :    -0.043508
      px      :    -0.001299
      py      :    -0.021139
      dz2     :     0.000731  d :     0.004429
      dxz     :     0.001372
      dyz     :    -0.000022
      dx2y2   :     0.000975
      dxy     :     0.001373



                      *****************************
                      * MAYER POPULATION ANALYSIS *
                      *****************************

  NA   - Mulliken gross atomic population
  ZA   - Total nuclear charge
  QA   - Mulliken gross atomic charge
  VA   - Mayer's total valence
  BVA  - Mayer's bonded valence
  FA   - Mayer's free valence

  ATOM       NA         ZA         QA         VA         BVA        FA
  0 B      4.8435     5.0000     0.1565     3.8175     3.7144     0.1031
  1 B      5.5089     5.0000    -0.5089     4.0477     4.0370     0.0107
  2 B      4.5941     5.0000     0.4059     2.9212     2.8647     0.0565
  3 B      4.9423     5.0000     0.0577     3.9118     3.7533     0.1585
  4 B      5.4528     5.0000    -0.4528     4.1375     3.9547     0.1828
  5 B      4.6584     5.0000     0.3416     2.9669     2.9270     0.0399
  6 B      4.8432     5.0000     0.1568     3.8163     3.7132     0.1031
  7 B      4.6583     5.0000     0.3417     2.9663     2.9263     0.0400
  8 B      5.4527     5.0000    -0.4527     4.1369     3.9541     0.1828
  9 B      4.9426     5.0000     0.0574     3.9123     3.7541     0.1583
 10 B      4.5943     5.0000     0.4057     2.9226     2.8660     0.0566
 11 B      5.5087     5.0000    -0.5087     4.0480     4.0373     0.0107

  Mayer bond orders larger than 0.100000
B(  0-B ,  1-B ) :   1.5240 B(  0-B ,  2-B ) :  -0.1560 B(  0-B ,  3-B ) :   0.2291 
B(  0-B ,  5-B ) :   0.5417 B(  0-B ,  6-B ) :   0.6303 B(  0-B ,  7-B ) :   0.5416 
B(  0-B ,  9-B ) :   0.2291 B(  0-B , 10-B ) :  -0.2271 B(  0-B , 11-B ) :   0.3307 
B(  1-B ,  2-B ) :   0.6205 B(  1-B ,  3-B ) :   0.1433 B(  1-B ,  4-B ) :   0.4434 
B(  1-B ,  6-B ) :   0.3305 B(  1-B ,  8-B ) :   0.4435 B(  1-B ,  9-B ) :   0.1435 
B(  1-B , 11-B ) :   0.3774 B(  2-B ,  3-B ) :   0.4653 B(  2-B ,  5-B ) :   0.4750 
B(  2-B ,  6-B ) :  -0.2271 B(  2-B ,  7-B ) :   0.4751 B(  2-B ,  9-B ) :   0.4654 
B(  2-B , 10-B ) :   0.5971 B(  3-B ,  4-B ) :   1.4058 B(  3-B ,  5-B ) :  -0.2359 
B(  3-B ,  6-B ) :   0.2291 B(  3-B ,  7-B ) :  -0.2549 B(  3-B ,  8-B ) :   0.3709 
B(  3-B ,  9-B ) :   0.7914 B(  3-B , 10-B ) :   0.4656 B(  3-B , 11-B ) :   0.1434 
B(  4-B ,  5-B ) :   0.5851 B(  4-B ,  8-B ) :   0.5065 B(  4-B ,  9-B ) :   0.3712 
B(  4-B , 11-B ) :   0.4431 B(  5-B ,  6-B ) :   0.5415 B(  5-B ,  7-B ) :   0.8096 
B(  5-B ,  9-B ) :  -0.2549 B(  5-B , 10-B ) :   0.4750 B(  6-B ,  7-B ) :   0.5414 
B(  6-B ,  9-B ) :   0.2290 B(  6-B , 10-B ) :  -0.1563 B(  6-B , 11-B ) :   1.5241 
B(  7-B ,  8-B ) :   0.5849 B(  7-B ,  9-B ) :  -0.2358 B(  7-B , 10-B ) :   0.4750 
B(  8-B ,  9-B ) :   1.4059 B(  8-B , 11-B ) :   0.4432 B(  9-B , 10-B ) :   0.4658 
B(  9-B , 11-B ) :   0.1435 B( 10-B , 11-B ) :   0.6211 

-------
TIMINGS
-------

Total SCF time: 0 days 0 hours 0 min 13 sec 

Total time                  ....      13.556 sec
Sum of individual times     ....      12.873 sec  ( 95.0%)

SCF preparation             ....       0.101 sec  (  0.7%)
Fock matrix formation       ....      11.103 sec  ( 81.9%)
  Startup                   ....       0.070 sec  (  0.6% of F)
  Split-RI-J                ....       0.931 sec  (  8.4% of F)
  XC integration            ....      10.031 sec  ( 90.3% of F)
    Basis function eval.    ....       0.702 sec  (  7.0% of XC)
    Density eval.           ....       3.388 sec  ( 33.8% of XC)
    XC-Functional eval.     ....       0.185 sec  (  1.8% of XC)
    XC-Potential eval.      ....       4.941 sec  ( 49.3% of XC)
Diagonalization             ....       0.000 sec  (  0.0%)
Density matrix formation    ....       0.392 sec  (  2.9%)
Total Energy calculation    ....       0.172 sec  (  1.3%)
Population analysis         ....       0.080 sec  (  0.6%)
Orbital Transformation      ....       0.056 sec  (  0.4%)
Orbital Orthonormalization  ....       0.000 sec  (  0.0%)
DIIS solution               ....       0.334 sec  (  2.5%)
SOSCF solution              ....       0.635 sec  (  4.7%)
Finished LeanSCF after  13.7 sec

Maximum memory used throughout the entire LEANSCF-calculation: 13.6 MB


           ************************************************************
           *        Program running with 8 parallel MPI-processes     *
           *              working on a common directory               *
           ************************************************************

------------------------------------------------------------------------------
                         ORCA PROPERTY INTEGRAL CALCULATIONS
------------------------------------------------------------------------------

GBWName                                   ... b12_hexagonal_prism_m3_spinfreq.gbw
Number of atoms                           ...     12
Number of basis functions                 ...    228
Max core memory                           ...   1500 MB

Dipole integrals                          ... YES
Quadrupole integrals                      ...  NO
Linear momentum integrals                 ...  NO
Angular momentum integrals                ...  NO
Higher moments length integrals           ...  NO
Higher moments velocity integrals         ...  NO
Kinetic energy integrals                  ...  NO
GIAO right hand sides                     ...  NO
GIAO dipole derivative integrals          ...  NO
SOC integrals                             ...  NO
EPR diamagnetic integrals (GIAO)          ...  NO
EPR gauge integrals                       ...  NO
Field gradient integrals                  ...  NO (   0 nuclei)
Spin-dipole/Fermi contact integrals       ...  NO (   0 nuclei)
Contact density integrals                 ...  NO (   0 nuclei)
Nucleus-orbit integrals                   ...  NO (   0 nuclei)
Geometric perturbations                   ... YES (  12 nuclei)

Choice of electric origin   ... Center of mass
Position of electric origin ... (  0.0000,  0.0000,  0.0000) 
Choice of magnetic origin   ... GIAO
Position of magnetic origin ... (  0.0000,  0.0000,  0.0000) 

Calculating integrals                     ... Electric Dipole (Length)     done (  0.0 sec)
Calculating integrals                     ... Geometrical perturbation right hand sides

-----------------------
GEOMETRIC PERTURBATIONS (12 nuclei)
-----------------------

MaxCore                            ...   1500 MB
Number of batches                  ...      1

BATCH   0: Atoms    0 -   11 ( 36 perturbations)
   => H(core) and overlap derivative integrals     ... done (     0.1 sec)
   => Making and storing internal U-coefficients   ... done (     0.2 sec)
   => RI-J derivative integrals                    ... done (     0.6 sec)
   => RI-J response operators                      ... done (     0.1 sec)
   => XC derivative integrals                      ... done (    59.2 sec)
   => XC response operators                        ... done (    15.8 sec)
   => Completing and storing right hand sides      ... done (     0.0 sec)
   => Total time for right hand sides =  76.5 sec

  geometrical perturbations done ( 76.5 sec)

Property integrals calculated in  76.5 sec

Maximum memory used throughout the entire PROPINT-calculation: 112.1 MB


-------------------------------------------------------------------------------
                          DFT DISPERSION CORRECTION                            
                                                                               
                                DFTD4 V3.4.0                                   
-------------------------------------------------------------------------------
The R2SCAN3C composite method is recognized
Using three-body term ABC
Active option DFTDOPT                   ...         5   

-------------------------   ----------------
Dispersion correction           -0.005792509
-------------------------   ----------------

------------------   -----------------
gCP correction             0.011200327
------------------   -----------------

-------------------------   --------------------
FINAL SINGLE POINT ENERGY      -297.779122038560
-------------------------   --------------------



           ************************************************************
           *        Program running with 8 parallel MPI-processes     *
           *              working on a common directory               *
           ************************************************************
------------------------------------------------------------------------------
                            ORCA SCF RESPONSE CALCULATION
------------------------------------------------------------------------------

GBWName                                 ... b12_hexagonal_prism_m3_spinfreq.gbw
Number of atoms                         ...     12
Number of basis functions               ...    228
Max core memory                         ...   1500 MB

Electric field perturbation             ...  NO
Quadrupolar field perturbation          ...  NO
Magnetic field perturbation (no GIAO)   ...  NO
Magnetic field perturbation (with GIAO) ...  NO
Linear momentum (velocity) perturbation ...  NO
Spin-orbit coupling perturbation        ...  NO
Choice of electric origin               ... Center of mass
Position of electric origin             ...     0.000000     0.000000     0.000000
Choice of magnetic origin               ... GIAO
Position of magnetic origin             ...     0.000000     0.000000     0.000000
Nuclear geometric perturbations         ... YES (  36 perturbations)
Nucleus-orbit perturbations             ...  NO (   0 perturbations)
Spin-dipole/Fermi contact perturbations ...  NO (   0 perturbations)

Total number of real perturbations      ...     36
Total number of imaginary perturbations ...      0
Total number of triplet perturbations   ...      0
Total number of SOC perturbations       ...      0

Using XC Grid                  ... (b12_hexagonal_prism_m3_spinfreq.grid_cpscf.tmp) 
Recalculating density on grid  ... (b12_hexagonal_prism_m3_spinfreq.grho_cpscf0.tmp) done
Calculating the xc-kernel      ... (b12_hexagonal_prism_m3_spinfreq.fxc_cpscf0.tmp) done

                                **********************
                                * REAL PERTURBATIONS *
                                **********************



-------------------
SHARK CP-SCF DRIVER
-------------------

Dimension of the orbital basis          ...    228
Dimension of the CPSCF-problem          ...  11878
Number of operators                     ...      2
Max. number of iterations               ...    128
Convergence Tolerance                   ... 1.0e-04
Number of perturbations                 ...     36
Perturbation type                       ... REAL

----------------------------
POPLE LINEAR EQUATION SOLVER
----------------------------

  ITERATION   0:   ||err||_max =   1.0702e+00 (   4.6 sec   0/ 36 done)
  ITERATION   1:   ||err||_max =   2.0863e-01 (   5.0 sec   0/ 36 done)
  ITERATION   2:   ||err||_max =   1.4436e-01 (   4.4 sec   0/ 36 done)
  ITERATION   3:   ||err||_max =   1.5756e-01 (   4.9 sec   0/ 36 done)
  ITERATION   4:   ||err||_max =   8.2720e-02 (   4.3 sec   0/ 36 done)
  ITERATION   5:   ||err||_max =   4.6326e-02 (   4.9 sec   0/ 36 done)
  ITERATION   6:   ||err||_max =   1.6573e-02 (   4.7 sec   0/ 36 done)
  ITERATION   7:   ||err||_max =   1.3011e-02 (   4.9 sec   0/ 36 done)
  ITERATION   8:   ||err||_max =   6.4877e-03 (   4.9 sec   0/ 36 done)
  ITERATION   9:   ||err||_max =   2.7983e-03 (   5.0 sec   0/ 36 done)
  ITERATION  10:   ||err||_max =   1.6830e-03 (   4.9 sec   0/ 36 done)
  ITERATION  11:   ||err||_max =   1.1116e-03 (   4.6 sec   0/ 36 done)
  ITERATION  12:   ||err||_max =   5.7848e-04 (   5.4 sec   0/ 36 done)
  ITERATION  13:   ||err||_max =   2.4102e-04 (   4.9 sec   6/ 36 done)
  ITERATION  14:   ||err||_max =   1.2829e-04 (   4.5 sec  28/ 36 done)
  ITERATION  15:   ||err||_max =   6.7200e-05 (   1.5 sec  36/ 36 done)

CP-SCF equations solved in  79.0 sec
Response densities calculated in   0.0 sec

Maximum memory used throughout the entire SCFRESP-calculation: 74.6 MB


           ************************************************************
           *        Program running with 8 parallel MPI-processes     *
           *              working on a common directory               *
           ************************************************************

------------------------------------------------------------------------------
                              ORCA PROPERTY CALCULATIONS
------------------------------------------------------------------------------

GBWName                                 ... b12_hexagonal_prism_m3_spinfreq.gbw
Number of atoms                         ...     12
Number of basis functions               ...    228
Max core memory                         ...   1500 MB

Electric properties:
Dipole moment                           ... YES
Quadrupole moment                       ...  NO
Static polarizability (Dipole/Dipole)   ...  NO
Static polarizability (Dipole/Quad.)    ...  NO
Static polarizability (Quad./Quad.)     ...  NO
Static polarizability (Velocity)        ...  NO
Static hyperpolarizability              ...  NO

Atomic electric properties:
Dipole moment                           ...  NO
Quadrupole moment                       ...  NO
Static polarizability                   ...  NO

Choice of electric origin               ... Center of mass
Position of electric origin             ...     0.000000     0.000000     0.000000

General magnetic properties:
Magnetizability                         ...  NO

EPR properties:
g-Tensor (aka g-matrix)                 ...  NO
Zero-Field splitting spin-orbit         ...  NO
Zero-field splitting spin-spin          ...  NO
Hyperfine couplings                     ...  NO (   0 nuclei)
Quadrupole couplings                    ...  NO (   0 nuclei)
Contact density                         ...  NO (   0 nuclei)

NMR properties:
Chemical shifts                         ...  NO (   0 nuclei)
Spin-rotation constants                 ...  NO (   0 nuclei)
Spin-spin couplings                     ...  NO (   0 nuclei,    0 pairs)

Choice of magnetic origin               ... GIAO
Position of magnetic origin             ...     0.000000     0.000000     0.000000

Properties with geometric perturbations:
SCF Hessian                             ... YES
IR spectrum                             ... YES
VCD spectrum                            ...  NO
X-ray spectroscopy properties:
SCF XES/XAS/RIXS spectra                ...  NO

SCF SOC stabilization energy            ...  NO
Diagonal Born-Oppenheimer correction    ...  NO

-------------
DIPOLE MOMENT
-------------

Method             : SCF
Type of density    : Electron Density
Multiplicity       :   3
Irrep              :   0
Energy             :  -297.7845298570021555 Eh
Basis              : AO
                                X                 Y                 Z
Electronic contribution:     -0.400941471       0.001114200      -0.000070713
Nuclear contribution   :      0.000000000       0.000000000      -0.000000000
                        -----------------------------------------
Total Dipole Moment    :     -0.400941471       0.001114200      -0.000070713
                        -----------------------------------------
Magnitude (a.u.)       :      0.400943025
Magnitude (Debye)      :      1.019116179



--------------------
Rotational spectrum 
--------------------
 
Rotational constants in cm-1:             0.096836             0.053855             0.052056 
Rotational constants in MHz :          2903.075098          1614.539176          1560.603430 

Dipole components along the rotational axes: 
x,y,z [a.u.] :    -0.400943    -0.000223    -0.000058 
x,y,z [Debye]:    -1.019116    -0.000567    -0.000148 

 

Dipole moment calculation done in   0.0 sec 

-----------
SCF HESSIAN
-----------

Occupied/Occupied contributions to the Hessian:
   => Occupied/Occupied contributions              ... done (  0.0 sec)
Perturbed density contributions to the Hessian:
   => Perturbed density contributions              ... done (  0.0 sec)
Explicit contributions to the Hessian:
   => Nuclear repulsion Hessian                    ... done (  0.0 sec)
   => HCore and overlap Hessian                    ... done (  0.6 sec)
   => RI-J Hessian                                 ... done (  1.0 sec)
   => XC-Hessian                                   ... done ( 12.1 sec)
   => Van der Waals-Hessian                        ... done (  0.3 sec)
   => GCP-Hessian                                  ... done (  0.0 sec)
   => Explicit contributions done
Dipole derivatives                                 ... done (  0.0 sec)
Mass weighting the Hessian           ... done
Calculating normal modes             ... done
Scaling frequencies                  ... done

-----------------------
VIBRATIONAL FREQUENCIES
-----------------------

Scaling factor for frequencies =  1.000000000  (already applied!)

     0:       0.00 cm**-1
     1:       0.00 cm**-1
     2:       0.00 cm**-1
     3:       0.00 cm**-1
     4:       0.00 cm**-1
     5:       0.00 cm**-1
     6:     223.44 cm**-1
     7:     232.50 cm**-1
     8:     265.22 cm**-1
     9:     323.99 cm**-1
    10:     397.57 cm**-1
    11:     427.42 cm**-1
    12:     430.73 cm**-1
    13:     451.69 cm**-1
    14:     514.55 cm**-1
    15:     516.16 cm**-1
    16:     530.63 cm**-1
    17:     536.31 cm**-1
    18:     561.58 cm**-1
    19:     612.72 cm**-1
    20:     623.47 cm**-1
    21:     632.67 cm**-1
    22:     657.11 cm**-1
    23:     667.65 cm**-1
    24:     676.30 cm**-1
    25:     781.99 cm**-1
    26:     789.08 cm**-1
    27:     904.61 cm**-1
    28:     987.52 cm**-1
    29:    1002.37 cm**-1
    30:    1046.06 cm**-1
    31:    1122.93 cm**-1
    32:    1168.95 cm**-1
    33:    1225.33 cm**-1
    34:    1227.97 cm**-1
    35:    1324.12 cm**-1


------------
[...]
     24      -0.000650  -0.072077   0.000033  -0.194697   0.000102  -0.236428
     25      -0.008214   0.202443  -0.009074  -0.021811   0.011356  -0.174599
     26      -0.009278  -0.202287  -0.008495   0.022468   0.011345   0.175429
     27      -0.001082  -0.248790   0.000743  -0.005908  -0.000546   0.345723
     28      -0.055274   0.076454   0.121403  -0.203108  -0.152284   0.110368
     29      -0.055776  -0.075380   0.121617   0.203270  -0.152503  -0.111536
     30       0.000164  -0.249051   0.110825   0.293288  -0.435811   0.000244
     31       0.092301  -0.061303  -0.109338  -0.139693   0.184265   0.043734
     32      -0.092215  -0.061931  -0.109094  -0.138917   0.183090  -0.043909
     33      -0.000233   0.064267   0.186015  -0.157674  -0.023025   0.000040
     34      -0.076250  -0.195919   0.028245   0.068486  -0.149753  -0.000315
     35       0.075981  -0.195714   0.028806   0.068088  -0.149811   0.000434
                 30         31         32         33         34         35    
      0      -0.287813   0.078467   0.298252   0.002992   0.312084  -0.128755
      1      -0.058626   0.249911  -0.105999  -0.089974  -0.163376  -0.035075
      2      -0.059546   0.250164  -0.105155   0.086466  -0.164343  -0.035547
      3       0.061899   0.037008  -0.522969  -0.005034  -0.484287   0.103083
      4      -0.094759  -0.043678   0.104443   0.004189   0.081301  -0.011814
      5      -0.094574  -0.043578   0.103032  -0.002488   0.080057  -0.011531
      6       0.224495   0.076334   0.268501   0.002374   0.231758  -0.087111
      7       0.153940   0.025284   0.087326   0.009879   0.050890  -0.022156
      8       0.154534   0.025476   0.087998  -0.008848   0.051683  -0.022357
      9      -0.297646   0.092549  -0.000194   0.181710   0.008768   0.307916
     10      -0.232825  -0.307846  -0.046191  -0.102494  -0.122287  -0.178593
     11       0.234047   0.307669  -0.045677   0.101872   0.122318   0.177595
     12       0.143805   0.020558  -0.000031  -0.486263  -0.093876  -0.461916
     13      -0.086962   0.078254  -0.002744   0.046102   0.001306   0.055249
     14       0.086455  -0.078337  -0.002762  -0.044450  -0.000979  -0.053667
     15       0.154483  -0.305194  -0.000233   0.397534   0.024131   0.266373
     16       0.127986  -0.161461  -0.037139   0.130366   0.012769   0.077269
     17      -0.128556   0.162551  -0.037102  -0.131755  -0.012745  -0.078235
     18      -0.287481   0.076944  -0.298595   0.002996   0.313855  -0.128581
     19       0.060547  -0.250350  -0.104162  -0.086474   0.163495   0.035959
     20       0.059629  -0.250068  -0.104974   0.089989   0.162498   0.035491
     21       0.154073  -0.304487  -0.000225  -0.395895   0.032453   0.266586
     22      -0.129105   0.163440  -0.037148   0.132427  -0.015595  -0.079152
     23       0.128579  -0.162394  -0.037190  -0.131093   0.015586   0.078219
     24       0.144570   0.019807  -0.000041   0.483628  -0.104205  -0.463134
     25       0.086214  -0.078555  -0.002758   0.042941  -0.001654  -0.052486
     26      -0.086739   0.078495  -0.002727  -0.044581   0.002016   0.054073
     27      -0.296643   0.094663  -0.000183  -0.181368   0.013386   0.309311
     28       0.234717   0.307512  -0.045655  -0.098300   0.124411   0.176934
     29      -0.233522  -0.307752  -0.046163   0.098947  -0.124411  -0.177976
     30       0.223941   0.076503  -0.267192   0.002369   0.231563  -0.086989
     31      -0.155561  -0.025892   0.088721   0.008830  -0.052552   0.022642
     32      -0.154912  -0.025697   0.088021  -0.009882  -0.051739   0.022428
     33       0.062316   0.036847   0.522911  -0.005043  -0.485629   0.103216
     34       0.094435   0.043382   0.101305   0.002509  -0.078707   0.011224
     35       0.094605   0.043470   0.102700  -0.004177  -0.079941   0.011507


-----------
IR SPECTRUM
-----------

 Mode   freq       eps      Int      T**2         TX        TY        TZ
       cm**-1   L/(mol*cm) km/mol    a.u.
----------------------------------------------------------------------------
  6:    223.44   0.001282    6.48  0.001790  ( 0.000085  0.029920 -0.029921)
  7:    232.50   0.003080   15.57  0.004134  ( 0.000167  0.045467  0.045461)
  8:    265.22   0.000372    1.88  0.000438  ( 0.020931 -0.000062 -0.000001)
  9:    323.99   0.000000    0.00  0.000000  ( 0.000000 -0.000004  0.000005)
 10:    397.57   0.000122    0.62  0.000096  (-0.000014 -0.006914  0.006915)
 11:    427.42   0.000000    0.00  0.000000  ( 0.000003 -0.000181 -0.000147)
 12:    430.73   0.001188    6.00  0.000861  (-0.000069 -0.020746 -0.020741)
 13:    451.69   0.000000    0.00  0.000000  ( 0.000003 -0.000037 -0.000041)
 14:    514.55   0.000006    0.03  0.000004  ( 0.001893  0.000301 -0.000204)
 15:    516.16   0.000958    4.84  0.000579  (-0.000095 -0.017013  0.017020)
 16:    530.63   0.001353    6.84  0.000796  ( 0.028208 -0.000144  0.000028)
 17:    536.31   0.001017    5.14  0.000592  (-0.000085 -0.017206 -0.017203)
 18:    561.58   0.001818    9.19  0.001010  (-0.000078 -0.022471  0.022474)
 19:    612.72   0.000000    0.00  0.000000  ( 0.000014  0.000033 -0.000023)
 20:    623.47   0.000446    2.25  0.000223  ( 0.014944 -0.000073 -0.000016)
 21:    632.67   0.000172    0.87  0.000085  (-0.000050 -0.006509 -0.006507)
 22:    657.11   0.000590    2.98  0.000280  ( 0.016745 -0.000067 -0.000006)
 23:    667.65   0.000053    0.27  0.000025  ( 0.000022  0.003522 -0.003524)
 24:    676.30   0.000000    0.00  0.000000  (-0.000008 -0.000021 -0.000003)
 25:    781.99   0.000045    0.23  0.000018  (-0.004251  0.000014  0.000002)
 26:    789.08   0.000019    0.09  0.000007  ( 0.000019  0.001922  0.001921)
 27:    904.61   0.000055    0.28  0.000019  ( 0.004364 -0.000022 -0.000008)
 28:    987.52   0.000118    0.59  0.000037  ( 0.000025  0.004308  0.004311)
 29:   1002.37   0.000887    4.48  0.000276  ( 0.000000 -0.011750  0.011751)
 30:   1046.06   0.003996   20.19  0.001192  ( 0.034526 -0.000096 -0.000012)
 31:   1122.93   0.000356    1.80  0.000099  (-0.009943  0.000037  0.000013)
 32:   1168.95   0.002233   11.29  0.000596  (-0.000051 -0.017266 -0.017264)
 33:   1225.33   0.000942    4.76  0.000240  (-0.000016 -0.010956  0.010955)
 34:   1227.97   0.000034    0.17  0.000009  ( 0.002950  0.000122 -0.000107)
 35:   1324.12   0.000435    2.20  0.000103  (-0.010126  0.000032 -0.000018)

* The epsilon (eps) is given for a Dirac delta lineshape.
** The dipole moment derivative (T) already includes vibrational overlap.

The first frequency considered to be a vibration is 6
The total number of vibrations considered is 30


--------------------------
THERMOCHEMISTRY AT 298.15K
--------------------------

Temperature         ...   298.15 K
Pressure            ...     1.00 atm
Total Mass          ...   129.72 AMU
Quasi RRHO          ...     True
Cut-Off Frequency   ...     1.00 cm^-1

Throughout the following assumptions are being made:
  (1) The electronic state is orbitally nondegenerate
      but the spin degeneracy is treated
  (2) There are no thermally accessible electronically excited states
  (3) Hindered rotations indicated by low frequency modes are not
      treated as such but are treated as vibrations and this may
      cause some error
  (4) All equations used are the standard statistical mechanics
      equations for an ideal gas
  (5) All vibrations are strictly harmonic

freq.     223.44  E(vib)   ...       0.33 
freq.     232.50  E(vib)   ...       0.32 
freq.     265.22  E(vib)   ...       0.29 
freq.     323.99  E(vib)   ...       0.25 
freq.     397.57  E(vib)   ...       0.20 
freq.     427.42  E(vib)   ...       0.18 
freq.     430.73  E(vib)   ...       0.18 
freq.     451.69  E(vib)   ...       0.16 
freq.     514.55  E(vib)   ...       0.13 
freq.     516.16  E(vib)   ...       0.13 
freq.     530.63  E(vib)   ...       0.13 
freq.     536.31  E(vib)   ...       0.12 
freq.     561.58  E(vib)   ...       0.11 
freq.     612.72  E(vib)   ...       0.10 
freq.     623.47  E(vib)   ...       0.09 
freq.     632.67  E(vib)   ...       0.09 
freq.     657.11  E(vib)   ...       0.08 
freq.     667.65  E(vib)   ...       0.08 
freq.     676.30  E(vib)   ...       0.08 
freq.     781.99  E(vib)   ...       0.05 
freq.     789.08  E(vib)   ...       0.05 
freq.     904.61  E(vib)   ...       0.03 
freq.     987.52  E(vib)   ...       0.02 
freq.    1002.37  E(vib)   ...       0.02 
freq.    1046.06  E(vib)   ...       0.02 
freq.    1122.93  E(vib)   ...       0.01 
freq.    1168.95  E(vib)   ...       0.01 
freq.    1225.33  E(vib)   ...       0.01 
freq.    1227.97  E(vib)   ...       0.01 
freq.    1324.12  E(vib)   ...       0.01 

------------
INNER ENERGY
------------

The inner energy is: U= E(el) + E(ZPE) + E(vib) + E(rot) + E(trans)
    E(el)   - is the total energy from the electronic structure calculation
              = E(kin-el) + E(nuc-el) + E(el-el) + E(nuc-nuc)
    E(ZPE)  - the the zero temperature vibrational energy from the frequency calculation
    E(vib)  - the the finite temperature correction to E(ZPE) due to population
              of excited vibrational states
    E(rot)  - is the rotational thermal energy
    E(trans)- is the translational thermal energy

Summary of contributions to the inner energy U:
Electronic energy                ...   -297.77912204 Eh
Zero point energy                ...      0.04752860 Eh      29.82 kcal/mol
Thermal vibrational correction   ...      0.00527092 Eh       3.31 kcal/mol
Thermal rotational correction    ...      0.00141627 Eh       0.89 kcal/mol
Thermal translational correction ...      0.00141627 Eh       0.89 kcal/mol
-----------------------------------------------------------------------
Total thermal energy                   -297.72348997 Eh


Summary of corrections to the electronic energy:
(perhaps to be used in another calculation)
Total thermal correction                  0.00810346 Eh       5.08 kcal/mol
Non-thermal (ZPE) correction              0.04752860 Eh      29.82 kcal/mol
-----------------------------------------------------------------------
Total correction                          0.05563206 Eh      34.91 kcal/mol


--------
ENTHALPY
--------

The enthalpy is H = U + kB*T
                kB is Boltzmann's constant
Total thermal energy              ...   -297.72348997 Eh 
Thermal Enthalpy correction       ...      0.00094421 Eh       0.59 kcal/mol
-----------------------------------------------------------------------
Total Enthalpy                    ...   -297.72254576 Eh


Note: Only C1 symmetry has been detected, increase convergence thresholds 
      if your molecule has a higher symmetry. Symmetry factor of 1.0 is   
      used for the rotational entropy correction. 
 

Note: Rotational entropy computed according to Herzberg 
Infrared and Raman Spectra, Chapter V,1, Van Nostrand Reinhold, 1945 
Point Group:  C1, Symmetry Number:   1  
Rotational constants in cm-1:     0.096836     0.053855     0.052056 

Vibrational entropy computed according to the QRRHO of S. Grimme
Chem.Eur.J. 2012 18 9955 using a reference frequency of 100.0 cm-1


-------
ENTROPY
-------

The entropy contributions are T*S = T*(S(el)+S(vib)+S(rot)+S(trans))
     S(el)   - electronic entropy
     S(vib)  - vibrational entropy
     S(rot)  - rotational entropy
     S(trans)- translational entropy
The entropies will be listed as multiplied by the temperature to get
units of energy

Electronic entropy                ...      0.00103729 Eh      0.65 kcal/mol
Vibrational entropy               ...      0.00782731 Eh      4.91 kcal/mol
Rotational entropy                ...      0.01338744 Eh      8.40 kcal/mol
Translational entropy             ...      0.01923977 Eh     12.07 kcal/mol
-----------------------------------------------------------------------
Final entropy term                ...      0.04149181 Eh     26.04 kcal/mol

In case the symmetry of your molecule has not been determined correctly
or in case you have a reason to use a different symmetry number we print 
out the resulting rotational entropy values for sn=1,12:

 non-linear molecules -----------------------------------
|  sn= 1 | S(rot)=       0.01338744 Eh      8.40 kcal/mol|
|  sn= 2 | S(rot)=       0.01273298 Eh      7.99 kcal/mol|
|  sn= 3 | S(rot)=       0.01235015 Eh      7.75 kcal/mol|
|  sn= 4 | S(rot)=       0.01207853 Eh      7.58 kcal/mol|
|  sn= 5 | S(rot)=       0.01186784 Eh      7.45 kcal/mol|
|  sn= 6 | S(rot)=       0.01169569 Eh      7.34 kcal/mol|
|  sn= 7 | S(rot)=       0.01155015 Eh      7.25 kcal/mol|
|  sn= 8 | S(rot)=       0.01142407 Eh      7.17 kcal/mol|
|  sn= 9 | S(rot)=       0.01131286 Eh      7.10 kcal/mol|
|  sn=10 | S(rot)=       0.01121338 Eh      7.04 kcal/mol|
|  sn=11 | S(rot)=       0.01112339 Eh      6.98 kcal/mol|
|  sn=12 | S(rot)=       0.01104124 Eh      6.93 kcal/mol|
 linear molecules ---------------------------------------
|  Dinfh | S(rot)=       0.00811627 Eh      5.09 kcal/mol|
|  Cinfv | S(rot)=       0.00877073 Eh      5.50 kcal/mol|
 --------------------------------------------------------


-------------------
GIBBS FREE ENERGY
-------------------

The Gibbs free energy is G = H - T*S

Total enthalpy                    ...   -297.72254576 Eh 
Total entropy correction          ...     -0.04149181 Eh    -26.04 kcal/mol
-----------------------------------------------------------------------
Final Gibbs free energy         ...   -297.76403757 Eh

For completeness - the Gibbs free energy minus the electronic energy
G-E(el)                           ...      0.01508446 Eh      9.47 kcal/mol


Maximum memory used throughout the entire PROP-calculation: 38.2 MB
Converting b12_hexagonal_prism_m3_spinfreq.gbw to JSON (see b12_hexagonal_prism_m3_spinfreq.2jsonout) ... done

--------------------------------
SUGGESTED CITATIONS FOR THIS RUN
--------------------------------

Below you find a list of papers that are relevant to this ORCA run
We neither can nor want to force you to cite these papers, but we appreciate if you do
You receive ORCA, which is the product of decades of hard work by many enthusiastic individuals, for free
The only thing we kindly ask in return is that you cite our papers,
We deeply appreciate it, if you show your appreciation for ORCA by not just citing the generic ORCA reference.

Please note that relegating all ORCA citations to the supporting information does *not* help us.
SI sections are not indexed - citations you put there will not count into any citation statistics
But we need these citations in order to attract the funding resources that allow us to do what we are doing

Therefore, if you are a happy ORCA user, please consider citing a few of the papers listed below in the main body of your paper

In addition to the list printed below, the program has created the file b12_hexagonal_prism_m3_spinfreq.bibtex that contains the list in bibtex format
You can import this file easily into all common literature databanks and citation aid programs

It goes without saying that in many instances, there are alternative algorithms to achieve similar
results as the ones you have gotten from ORCA. It is, of course, also the case that in some instances
ORCA just re-implements algorithms worked out by others. We are fully aware of that and we are also
fully appreciative of our colleagues work. Hence this citation list should not be read as indicating
that the listed papers, which are focused on our own work, are the only ones worth citing. It simply
meant to make it easier for users to cite ORCA specific papers. It is not a substitute for doing your
own literature research and citing the relevant literature in a scientifically appropriate manner.

List of essential papers. We consider these as the minimum necessary citations

  1. Grimme, S.; Hansen, A.; Ehlert, S.; Mewes, J.
     r2SCAN-3c: A 'Swiss army knife' composite electronic-structure method
     J. Chem. Phys. 2021 154 , 064103
     doi.org/10.1063/5.0040021
  2. Neese, F.
     Software update: the ORCA program system, version 6.0
     WIRES Comput. Molec. Sci. 2025 15(1), e70019
     doi.org/10.1002/wcms.70019

List of papers to cite with high priority. The work reported in these papers was absolutely
necessary for this run to complete.
Our perspective: the developers of density functionals and basis sets usually get cited in chemistry papers
Good! But without the algorithms to do something with them, the functionals or basis sets would not do anything.
Hence, in our opinion, the algorithm design and method developments papers are equally worthy of getting cited

  1. Neese, F.
     An improvement of the resolution of the identity approximation for the formation of the Coulomb matrix
     J. Comp. Chem. 2003 24(14), 1740-1747
     doi.org/10.1002/jcc.10318
  2. Bykov, D.; Petrenko, T.; Izsak, R.; Kossmann, S.; Becker, U.; Valeev, E.; Neese, F.
     Efficient implementation of the analytic second derivatives of Hartree-Fock and hybrid DFT energies: a detailed analysis of different approximations
     Molec. Phys. 2015 113 , 1961-1977
     doi.org/10.1080/00268976.2015.1025114
  3. Caldeweyher, E.; Bannwarth, C.; Grimme, S.
     Extension of the D3 dispersion coefficient model
     J. Chem. Phys. 2017 147 , 034112
     doi.org/10.1063/1.4993215
  4. Lehtola, S.; Steigemann, C.; Oliveira, M.; Marques, M.
     Recent developments in Libxc - A comprehensive library of functionals for density functional theory
     Software X 2018 7 , 
     doi.org/10.1016/j.softx.2017.11.002
  5. Caldeweyher, E.; Ehlert, S.; Hansen, A.; Neugebauer, H.; Spicher, S.; Bannwarth, C.; Grimme, S.
     A generally applicable atomic-charge dependent London dispersion correction
     J. Chem. Phys. 2019 150 , 154122
     doi.org/10.1063/1.5090222
  6. Neese, F.
     The SHARK Integral Generation and Digestion System
     J. Comp. Chem. 2022 44(3), 381
     doi.org/10.1002/jcc.26942

List of suggested additional citations. These are papers that are important in the 'surrounding' of 
of this run, or papers that preceded the highly important papers. If you like your results we are grateful for a citation.

  1. Neese, F.
     The ORCA program system
     WIRES Comput. Molec. Sci. 2012 2(1), 73-78
     doi.org/10.1002/wcms.81
  2. Neese, F.
     Software update: the ORCA program system, version 4.0
     WIRES Comput. Molec. Sci. 2018 8(1), 1-6
     doi.org/10.1002/wcms.1327
  3. Neese, F.; Wennmohs, F.; Becker, U.; Riplinger, C.
     The ORCA quantum chemistry program package
     J. Chem. Phys. 2020 152(22), 224108
     doi.org/10.1063/5.0004608
  4. Neese, F.
     Software update: The ORCA program system—Version 5.0
     WIRES Comput. Molec. Sci. 2022 12(1), e1606
     doi.org/10.1002/wcms.1606

List of optional additional citations

  1. Neese, F.
     Approximate second-order SCF convergence for spin unrestricted wavefunctions
     Chem. Phys. Lett. 2000 325(1-3), 93-98
     doi.org/10.1016/s0009-2614(00)00662-x

Timings for individual modules:

Sum of individual times          ...      185.448 sec (=   3.091 min)
Startup calculation              ...        0.596 sec (=   0.010 min)   0.3 %
SCF iterations                   ...       14.284 sec (=   0.238 min)   7.7 %
Property integrals               ...       76.626 sec (=   1.277 min)  41.3 %
SCF Response                     ...       79.628 sec (=   1.327 min)  42.9 %
Property calculations            ...       14.314 sec (=   0.239 min)   7.7 %
                             ****ORCA TERMINATED NORMALLY****
TOTAL RUN TIME: 0 days 0 hours 3 minutes 6 seconds 80 msec
