
                                 *****************
                                 * O   R   C   A *
                                 *****************

                                            #,                                       
                                            ###                                      
                                            ####                                     
                                            #####                                    
                                            ######                                   
                                           ########,                                 
                                     ,,################,,,,,                         
                               ,,#################################,,                 
                          ,,##########################################,,             
                       ,#########################################, ''#####,          
                    ,#############################################,,   '####,        
                  ,##################################################,,,,####,       
                ,###########''''           ''''###############################       
              ,#####''   ,,,,##########,,,,          '''####'''          '####       
            ,##' ,,,,###########################,,,                        '##       
           ' ,,###''''                  '''############,,,                           
         ,,##''                                '''############,,,,        ,,,,,,###''
      ,#''                                            '''#######################'''  
     '                                                          ''''####''''         
             ,#######,   #######,   ,#######,      ##                                
            ,#'     '#,  ##    ##  ,#'     '#,    #''#        ,####,    ,#,          
            ##       ##  ##   ,#'  ##            #'  '#       #'       ,# #          
            ##       ##  #######   ##           ,######,      #####,      #          
            '#,     ,#'  ##    ##  '#,     ,#' ,#      #,     #,   #      #          
             '#######'   ##     ##  '#######'  #'      '#     '####' #    #          



                #########################################################
                #                        -***-                          #
                #          Department of theory and spectroscopy        #
                #                                                       #
                #                      Frank Neese                      #
                #                                                       #
                #     Directorship, Architecture, Infrastructure        #
                #                    SHARK, DRIVERS                     #
                #        Core code/Algorithms in most modules           #
                #                                                       #
                #        Max Planck Institute fuer Kohlenforschung      #
                #                Kaiser Wilhelm Platz 1                 #
                #                 D-45470 Muelheim/Ruhr                 #
                #                      Germany                          #
                #                                                       #
                #                  All rights reserved                  #
                #                        -***-                          #
                #########################################################


                         Program Version 6.1.1  -  RELEASE   -


 With contributions from (in alphabetic order):
[Max-Planck-Institut fuer Kohlenforschung]                               
  Daniel Aravena         : Magnetic Suceptibility                        
  Michael Atanasov       : Ab Initio Ligand Field Theory (pilot matlab implementation)
  Alexander A. Auer      : GIAO ZORA, VPT2 properties, NMR spectrum      
  Ute Becker             : All parallelization in ORCA, NUMFREQ, NUMCALC 
  Giovanni Bistoni       : ED, misc. LED, open-shell LED, HFLD           
  Dmytro Bykov           : pre 5.0 version of the SCF Hessian            
  Marcos Casanova-Páez   : Triplet and SCS-CIS(D). UHF-(DLPNO)-IP/EA/STEOM-CCSD. UHF-CVS-IP/STEOM-CCSD   
  Vijay G. Chilkuri      : MRCI spin determinant printing, contributions to CSF-ICE 
  Pauline Colinet        : FMM embedding                                 
  Dipayan Datta          : RHF DLPNO-CCSD density                        
  Achintya Kumar Dutta   : EOM-CC, STEOM-CC                              
  Nicolas Foglia         : Exact transition moments, OPA infrastructure, MCD improvements    
  Dmitry Ganyushin       : Spin-Orbit,Spin-Spin,Magnetic field MRCI      
  Miquel Garcia-Rates    : C-PCM and meta-GGA Hessian, CCSD/C-PCM, Gaussian charge scheme 
  Tiago L. C. Gouveia    : GS-ROHF, GS-ROCIS                             
  Yang Guo               : DLPNO-NEVPT2, F12-NEVPT2, CIM, IAO-localization        
  Andreas Hansen         : Spin unrestricted coupled pair/coupled cluster methods 
  Ingolf Harden          : AUTO-CI MPn and infrastructure                
  Benjamin Helmich-Paris : MC-RPA, TRAH-(SCF,CASSCF), AVAS, COSX integrals, SCF dyn. polar., MC-PDFT, srDFT 
  Lee Huntington         : MR-EOM, pCC                                   
  Robert Izsak           : Overlap fitted RIJCOSX, COSX-SCS-MP3, EOM     
  Riya Kayal             : Wick's Theorem for AUTO-CI, AUTO-CI UHF-CCSDT 
  Emily Kempfer          : AUTO-CI RHF CISDT and CCSDT, approximate NEVPT4
  Christian Kollmar      : KDIIS, OOCD, Brueckner-CCSD(T), CCSD density, CASPT2, CASPT2-K, improved NEVPT2 
  Axel Koslowski         : Symmetry handling                             
  Simone Kossmann        : meta-GGA functionals, TD-DFT gradient, OOMP2, (MP2 Hessian; deprecated post 5.0) 
  Lucas Lang             : DCDCAS, Hyperfine gauge corrections, ICE-SOC+SSC
  Marvin Lechner         : AUTO-CI (C++ implementation), FIC-MRCC        
  Spencer Leger          : CASSCF response                               
  Dagmar Lenk            : GEPOL surface, SMD, ORCA-2-JSON               
  Dimitrios Liakos       : Extrapolation schemes; Compound Job, Property file
  Dimitrios Manganas     : Further ROCIS development; embedding schemes. LFT, Crystal Embedding 
  Dimitrios Pantazis     : SARC Basis sets                               
  Anastasios Papadopoulos: AUTO-CI, single reference methods and gradients 
  Taras Petrenko         : pre 6.0 DFT Hessian and TD-DFT gradient,  ECA, NRVS 
  Petra Pikulova         : Analytic Raman intensities                    
  Peter Pinski           : DLPNO-MP2, DLPNO-MP2 Gradient                 
  Shashank Vittal Rao    : ES-AILFT, MagRelax                            
  Christoph Reimann      : Effective Core Potentials                     
  Marius Retegan         : Local ZFS, SOC                                
  Christoph Riplinger    : Optimizer, TS searches, QM/MM, DLPNO-CCSD(T), (RO)-DLPNO pert. Triples 
  Michael Roemelt        : Original ROCIS implementation, recursive CI coupling coefficients
  Masaaki Saitow         : Open-shell DLPNO-CCSD energy and density      
  Barbara Sandhoefer     : DKH picture change effects                    
  Yorick L. A. Schmerwitz: GMF and freeze-and-release deltaSCF, NEB S-IDPP initial path                    
  Kantharuban Sivalingam : CASSCF convergence/infrastructure, NEVPT2, NEVPT3, NEVPT4(SD), FIC-MRCI and CEPA variants
  Bernardo de Souza      : ESD, SOC TD-DFT                               
  Georgi L. Stoychev     : AutoAux, RI-MP2 NMR, DLPNO-MP2 response, X2C  
  Van Anh Tran           : RI-MP2 g-tensors                              
  Willem Van den Heuvel  : Paramagnetic NMR                              
  Zikuan Wang            : NOTCH, Electric field optimization            
  Frank Wennmohs         : Technical directorship and infrastructure     
  Hang Xu                : AUTO-CI-Response properties                   
                                                                         
[FACCTs GmbH]                                                            
  Markus Bursch, Nicolas Foglia, Miquel Garcia-Rates, Ingolf Harden, Hagen Neugebauer, Anastasios Papadopoulos, 
  Christoph Riplinger, Bernardo de Souza, Georgi L. Stoychev                                                    
                                                                 
  APM, various basis sets, CI-OPT, improved COSX, DLPNO-Multilevel,           
  DOCKER, DRACO, updates on ESD, Fragmentator, GOAT, IRC, LR-CPCM, L-BFGS, MBIS, meta-GGA TD-DFT gradient, ML-optimized integration grids, 
  MM, NACMEs, nearIR, NEB, NEB-TS, NL-DFT gradient (VV10), 2- and 3-layer-ONIOM, interface openCOSMO-RS, QMMM,   
  Crystal-QMMM, RESP, rigid body optimization, SF, symmetry and pop. for TD-DFT, various functionals, SOLVATOR                                   
                                                                         
[Other institutions]                                                     
  V. Asgeirsson          : NEB                                           
  Christoph Bannwarth    : sTDA-DFT, sTD-DFT, PBEh-3c, B97-3c, D3        
  Giovanni Bistoni       : ETS/NOCV, ADLD/ADEX, COVALED                  
  Martin Brehm           : Molecular dynamics                            
  Ronald Cardenas        : ETS/NOCV                                      
  Martina Colucci        : COVALED                                       
  Sebastian Ehlert       : rSCAN, r2SCAN, r2SCAN-3c, D4, dhf basis sets  
  Marvin Friede          : D4 for Fr, Ra, Ac-Lr                          
  Lars Goerigk           : TD-DFT with DH, B97 family of functionals     
  Stefan Grimme          : VdW corrections, initial TS optimization, DFT functionals, gCP, sTDA/sTD-DF 
  Waldemar Hujo          : DFT-NL                                        
  H. Jonsson             : NEB                                           
  Holger Kruse           : gCP                                           
  Marcel Mueller         : wB97X-3c, vDZP basis set                      
  Hagen Neugebauer       : wr2SCAN, Native XTB                           
  Gianluca Regni         : ADLD/ADEX                                     
  Tobias Risthaus        : pre 6.0 range-separated hybrid DFT and stability analysis
  Lukas Wittmann         : regularized MP2, r2SCAN double-hybrids, wr2SCAN        
                                                                         
We gratefully acknowledge several colleagues who have allowed us to      
interface, adapt or use parts of their codes:                            
  Ed Valeev, F. Pavosevic, A. Kumar             : LibInt (2-el integral package), F12 methods 
  Garnet Chan, S. Sharma, J. Yang, R. Olivares  : DMRG                   
  Ulf Ekstrom                                   : XCFun DFT Library      
  Mihaly Kallay                                 : mrcc  (arbitrary order and MRCC methods)
  Frank Weinhold                                : gennbo (NPA and NBO analysis)           
  Simon Mueller                                 : openCOSMO-RS                            
  Christopher J. Cramer and Donald G. Truhlar   : smd solvation model                     
  S Lehtola, MJT Oliveira, MAL Marques          : LibXC Library                           
  Liviu Ungur et al                             : ANISO software                          


 Your calculation uses the libint2 library for the computation of 2-el integrals
 For citations please refer to: http://libint.valeyev.net

 Your ORCA version has been built with support for libXC version: 7.0.0
 For citations please refer to: https://libxc.gitlab.io

 This ORCA versions uses:
   CBLAS   interface :  Fast vector & matrix operations
   LAPACKE interface :  Fast linear algebra routines
   Shared memory     :  Shared parallel matrices


  ***********************************
  * Starting time: Mon Mar 30 17:46:32 2026
  * Host name:     DESKTOP-E59RH2R
  * Process ID:    81024
  * Working dir.:  C:\Users\gnome\Desktop\Vitya_Diplom\Vitya_DiplomB12\04_frequencies\b12_hexagonal_prism\mult_1
  ***********************************

NOTE: MaxCore=1500 MB was set to SCF,MP2,MDCI,CIPSI,MRCI,RASCI and CIS
      => If you want to overwrite this, your respective input block should be placed after the MaxCore statement
Your calculation utilizes the geometrical counterpoise correction gCP
Please cite in your paper:
H.Kruse, S. Grimme J.Chem.Phys., 136, (2012), 154101 
   

Your calculation utilizes the atom-pairwise dispersion correction
based on EEQ partial charges (D4)


================================================================================

----- Orbital basis set information -----
Your calculation utilizes the basis: def2-mTZVPP
   Stefan Grimme, Andreas Hansen, Sebastian Ehlert, and Jan-Michael Mewes 
   J. Chem. Phys. 154, 064103 (2021). DOI: 10.1063/5.0040021

----- AuxJ basis set information -----
Your calculation utilizes the basis: def2-mTZVPP/J
   Stefan Grimme, Andreas Hansen, Sebastian Ehlert, and Jan-Michael Mewes 
   J. Chem. Phys. 154, 000000 (2021). DOI: 10.1063/5.0040021

================================================================================
                                        WARNINGS
                       Please study these warnings very carefully!
================================================================================



WARNING: SCAN, rSCAN, or r2SCAN functional requested.
  ===> : libXC variant has now been activated.



================================================================================
                                       INPUT FILE
================================================================================
NAME = b12_hexagonal_prism_m1_freq.inp
|  1> !r2scan-3c
|  2> !freq
|  3> !tightscf
|  4> 
|  5> %output
|  6>     jsonpropfile true
|  7>     jsongbwfile true
|  8> end
|  9> 
| 10> %freq
| 11>     temp 298.15
| 12>     pressure 1.0
| 13> end
| 14> 
| 15> %maxcore 1500
| 16> %pal
| 17>   nprocs 8
| 18> end
| 19> 
| 20> * xyz 0 1
| 21> B             1.9301996024580399             0.5863756100549200             0.5914869941246500
| 22> B             0.5793009173024000             1.0891256384135299             1.0906522757569499
| 23> B            -0.9802515399658500             0.7802218754564600             0.7776110567997300
| 24> B            -1.9296762559171501            -0.5862157376614801             0.5925268712397200
| 25> B            -0.5785159118419100            -1.0889884976686901             1.0913572253643000
| 26> B             0.9807590209072700            -0.7801643868435000             0.7767253987831100
| 27> B             1.9258864733159200            -0.5983167664020400            -0.5926512068307001
| 28> B             0.9848940629915101             0.7739519743266600            -0.7770073049671500
| 29> B            -0.5727248782637900             1.0921657197385599            -1.0913361649405000
| 30> B            -1.9264768994946000             0.5984055665238700            -0.5914298300749600
| 31> B            -0.9853007682228200            -0.7741334981562100            -0.7763883161752800
| 32> B             0.5719061767309900            -1.0924274977820601            -1.0915469990798801
| 33> *
| 34> 
| 35>                          ****END OF INPUT****
================================================================================

                       ****************************
                       * Single Point Calculation *
                       ****************************

---------------------------------
CARTESIAN COORDINATES (ANGSTROEM)
---------------------------------
  B      1.930200    0.586376    0.591487
  B      0.579301    1.089126    1.090652
  B     -0.980252    0.780222    0.777611
  B     -1.929676   -0.586216    0.592527
  B     -0.578516   -1.088988    1.091357
  B      0.980759   -0.780164    0.776725
  B      1.925886   -0.598317   -0.592651
  B      0.984894    0.773952   -0.777007
  B     -0.572725    1.092166   -1.091336
  B     -1.926477    0.598406   -0.591430
  B     -0.985301   -0.774133   -0.776388
  B      0.571906   -1.092427   -1.091547

----------------------------
CARTESIAN COORDINATES (A.U.)
----------------------------
  NO LB      ZA    FRAG     MASS         X           Y           Z
   0 B     5.0000    0    10.810    3.647549    1.108089    1.117748
   1 B     5.0000    0    10.810    1.094720    2.058149    2.061034
   2 B     5.0000    0    10.810   -1.852407    1.474406    1.469472
   3 B     5.0000    0    10.810   -3.646560   -1.107787    1.119714
   4 B     5.0000    0    10.810   -1.093237   -2.057890    2.062366
   5 B     5.0000    0    10.810    1.853366   -1.474297    1.467798
   6 B     5.0000    0    10.810    3.639398   -1.130655   -1.119948
   7 B     5.0000    0    10.810    1.861180    1.462557   -1.468331
   8 B     5.0000    0    10.810   -1.082293    2.063894   -2.062326
   9 B     5.0000    0    10.810   -3.640514    1.130823   -1.117640
  10 B     5.0000    0    10.810   -1.861949   -1.462900   -1.467161
  11 B     5.0000    0    10.810    1.080746   -2.064389   -2.062725

--------------------------------
INTERNAL COORDINATES (ANGSTROEM)
--------------------------------
 B      0   0   0     0.000000000000     0.00000000     0.00000000
 B      1   0   0     1.525401857530     0.00000000     0.00000000
 B      2   1   0     1.620376563181   136.57785925     0.00000000
 B      3   2   1     1.674161042895   136.28379418    46.34703246
 B      4   3   2     1.525531528944    74.36911927     8.59695996
 B      5   4   3     1.620402367816   136.55076574   316.97861477
 B      6   5   4     1.673776193629   136.29685118   313.66006702
 B      1   2   3     1.673787352690    74.36258873    42.96425139
 B      8   1   2     1.620567612332   136.33775622   351.44271197
 B      9   8   1     1.525237675750   136.54813823   313.71752188
 B      4   3   2     1.673644806045    82.07196168   292.68413329
 B      7   6   5     1.525222957449    74.40372720   351.45947592

---------------------------
INTERNAL COORDINATES (A.U.)
---------------------------
 B      0   0   0     0.000000000000     0.00000000     0.00000000
 B      1   0   0     2.882591754907     0.00000000     0.00000000
 B      2   1   0     3.062067938237   136.57785925     0.00000000
 B      3   2   1     3.163705875151   136.28379418    46.34703246
 B      4   3   2     2.882836798367    74.36911927     8.59695996
 B      5   4   3     3.062116701930   136.55076574   316.97861477
 B      6   5   4     3.162978615436   136.29685118   313.66006702
 B      1   2   3     3.162999703006    74.36258873    42.96425139
 B      8   1   2     3.062428968810   136.33775622   351.44271197
 B      9   8   1     2.882281496306   136.54813823   313.71752188
 B      4   3   2     3.162730328886    82.07196168   292.68413329
 B      7   6   5     2.882253682748    74.40372720   351.45947592

---------------------
BASIS SET INFORMATION
---------------------
There are 1 groups of distinct atoms

 Group   1 Type B   : 11s6p1d contracted to 5s3p1d pattern {62111/411/1}

Atom   0B    basis set group =>   1
Atom   1B    basis set group =>   1
Atom   2B    basis set group =>   1
Atom   3B    basis set group =>   1
Atom   4B    basis set group =>   1
Atom   5B    basis set group =>   1
Atom   6B    basis set group =>   1
Atom   7B    basis set group =>   1
Atom   8B    basis set group =>   1
Atom   9B    basis set group =>   1
Atom  10B    basis set group =>   1
Atom  11B    basis set group =>   1
---------------------------------
AUXILIARY/J BASIS SET INFORMATION
---------------------------------
There are 1 groups of distinct atoms

 Group   1 Type B   : 8s3p3d contracted to 6s3p3d pattern {311111/111/111}

Atom   0B    basis set group =>   1
Atom   1B    basis set group =>   1
Atom   2B    basis set group =>   1
Atom   3B    basis set group =>   1
Atom   4B    basis set group =>   1
Atom   5B    basis set group =>   1
Atom   6B    basis set group =>   1
Atom   7B    basis set group =>   1
Atom   8B    basis set group =>   1
Atom   9B    basis set group =>   1
Atom  10B    basis set group =>   1
Atom  11B    basis set group =>   1


           ************************************************************
           *        Program running with 8 parallel MPI-processes     *
           *              working on a common directory               *
           ************************************************************
------------------------------------------------------------------------------
                             ORCA STARTUP CALCULATIONS
                           -- RI-GTO INTEGRALS CHOSEN --
------------------------------------------------------------------------------
------------------------------------------------------------------------------
                   ___                                                        
                  /   \      - P O W E R E D   B Y -                         
                 /     \                                                     
                 |  |  |   _    _      __       _____    __    __             
                 |  |  |  | |  | |    /  \     |  _  \  |  |  /  |          
                  \  \/   | |  | |   /    \    | | | |  |  | /  /          
                 / \  \   | |__| |  /  /\  \   | |_| |  |  |/  /          
                |  |  |   |  __  | /  /__\  \  |    /   |      \           
                |  |  |   | |  | | |   __   |  |    \   |  |\   \          
                \     /   | |  | | |  |  |  |  | |\  \  |  | \   \       
                 \___/    |_|  |_| |__|  |__|  |_| \__\ |__|  \__/        
                                                                              
                      - O R C A' S   B I G   F R I E N D -                    
                                      &                                       
                       - I N T E G R A L  F E E D E R -                       
                                                                              
 v1 FN, 2020, v2 2021, v3 2022-2024                                           
------------------------------------------------------------------------------


----------------------
SHARK INTEGRAL PACKAGE
----------------------

Number of atoms                             ...     12
Number of basis functions                   ...    228
Number of shells                            ...    108
Maximum angular momentum                    ...      2
Integral batch strategy                     ... SHARK/LIBINT Hybrid
RI-J (if used) integral strategy            ... SPLIT-RIJ (Revised 2003 algorithm where possible)
Printlevel                                  ...      1
Contraction scheme used                     ... SEGMENTED contraction
Prescreening option                         ... SCHWARTZ
   Thresh                                   ... 2.500e-11
   Tcut                                     ... 2.500e-12
   Tpresel                                  ... 2.500e-12 
Coulomb Range Separation                    ... NOT USED
Exchange Range Separation                   ... NOT USED
Multipole approximations                    ... NOT USED
Finite Nucleus Model                        ... NOT USED
CABS basis                                  ... NOT available
Auxiliary Coulomb fitting basis             ... AVAILABLE
   # of basis functions in Aux-J            ...    360
   # of shells in Aux-J                     ...    144
   Maximum angular momentum in Aux-J        ...      2
Auxiliary J/K fitting basis                 ... NOT available
Auxiliary Correlation fitting basis         ... NOT available
Auxiliary 'external' fitting basis          ... NOT available

Checking pre-screening integrals            ... done (  0.0 sec) Dimension = 108
   => SHARK Basis and OBASIS are compatible. Storing Pre-screening
Shell pair information
Shell pair cut-off parameter TPreSel        ...   2.5e-12
Total number of shell pairs                 ...      5886
Shell pairs after pre-screening             ...      5702
Total number of primitive shell pairs       ...     23700
Primitive shell pairs kept                  ...     16978
          la=0 lb=0:   1662 shell pairs
          la=1 lb=0:   2152 shell pairs
          la=1 lb=1:    666 shell pairs
          la=2 lb=0:    712 shell pairs
          la=2 lb=1:    432 shell pairs
          la=2 lb=2:     78 shell pairs

Checking whether 4 symmetric matrices of dimension 228 fit in memory
:Max Core in MB      =   1500.00
 MB in use           =      7.44
 MB left             =   1492.56
 MB needed           =      0.80
 Data fit in memory  = YES
Calculating RI/J V-Matrix + Cholesky decomp.... done (  0.0 sec)
Calculating Nuclear repulsion               ... done (  0.0 sec) ENN=    381.731248161400 Eh

Diagonalization of the overlap matrix:
Smallest eigenvalue                        ... 3.054e-06
Time for diagonalization                   ...    0.002 sec
Threshold for overlap eigenvalues          ... 1.000e-07
Number of eigenvalues below threshold      ... 0
Time for construction of square roots      ...    0.003 sec
Total time needed                          ...    0.006 sec

-------------------
DFT GRID GENERATION
-------------------

General Integration Accuracy     IntAcc      ... 4.388
Radial Grid Type                 RadialGrid  ... OptM3 with GC (2021)
Angular Grid (max. ang.)         AngularGrid ... 4 (Lebedev-302)
Angular grid pruning method      GridPruning ... 4 (adaptive)
Weight generation scheme         WeightScheme... mBecke (2022)
Basis function cutoff            BFCut       ... 1.0000e-11
Integration weight cutoff        WCut        ... 1.0000e-14
Partially contracted basis set               ... off
Rotationally invariant grid construction     ... off
Angular grids for H and He will be reduced by one unit

Total number of grid points                  ...    69970
Total number of batches                      ...     1100
Average number of points per batch           ...       63
Average number of grid points per atom       ...     5831
Grids setup in   0.4 sec
Initializing property integral containers    ... done (  0.0 sec)

SHARK setup successfully completed in   0.5 seconds

Maximum memory used throughout the entire STARTUP-calculation: 20.5 MB


           ************************************************************
           *        Program running with 8 parallel MPI-processes     *
           *              working on a common directory               *
           ************************************************************
-------------------------------------------------------------------------------
                                 ORCA GUESS
                   Start orbitals & Density for SCF / CASSCF
-------------------------------------------------------------------------------

------------
SCF SETTINGS
------------
Hamiltonian:
 Density Functional     Method          .... DFT(GTOs)
  Functional kind                       .... Exchange
  Functional name                       .... Re-regularized SCAN exchange by Furness et al
  Functional family                     .... MGGA
  Functional refs                              
    [ 0] J. W. Furness, A. D. Kaplan, J. Ning, J. P. Perdew, and J. Sun.,  J. Phys. Chem. Lett. 11, 8208-8215 (2020), doi: 10.1021/acs.jpclett.0c02405
    [ 1] J. W. Furness, A. D. Kaplan, J. Ning, J. P. Perdew, and J. Sun.,  J. Phys. Chem. Lett. 11, 9248-9248 (2020), doi: 10.1021/acs.jpclett.0c03077
  Functional external parameters        .... 6
    Parameter  0 _c1        =  6.670000e-01 : c1 parameter        
    Parameter  1 _c2        =  8.000000e-01 : c2 parameter        
    Parameter  2 _d         =  1.240000e+00 : d parameter         
    Parameter  3 _k1        =  6.500000e-02 : k1 parameter        
    Parameter  4 _eta       =  1.000000e-03 : eta parameter       
    Parameter  5 _dp2       =  3.610000e-01 : dp2 parameter       
  Functional kind                       .... Correlation
  Functional name                       .... Re-regularized SCAN correlation by Furness et al
  Functional family                     .... MGGA
  Functional refs                              
    [ 0] J. W. Furness, A. D. Kaplan, J. Ning, J. P. Perdew, and J. Sun.,  J. Phys. Chem. Lett. 11, 8208-8215 (2020), doi: 10.1021/acs.jpclett.0c02405
    [ 1] J. W. Furness, A. D. Kaplan, J. Ning, J. P. Perdew, and J. Sun.,  J. Phys. Chem. Lett. 11, 9248-9248 (2020), doi: 10.1021/acs.jpclett.0c03077
  Functional external parameters        .... 1
    Parameter  0 _eta       =  1.000000e-03 : Regularization parameter
 Gradients option       PostSCFGGA      .... off
 RI-approximation to the Coulomb term is turned on
   Number of AuxJ basis functions       .... 360


General Settings:
 Integral files         IntName         .... b12_hexagonal_prism_m1_freq
 Hartree-Fock type      HFTyp           .... RHF
 Total Charge           Charge          ....    0
 Multiplicity           Mult            ....    1
 Number of Electrons    NEL             ....   60
 Basis Dimension        Dim             ....  228
 Nuclear Repulsion      ENuc            ....    381.7312481614 Eh

Convergence Acceleration:
 AO-DIIS                CNVDIIS         .... on
   Start iteration      DIISMaxIt       ....    12
   Startup error        DIISStart       ....  0.200000
   # of expansion vecs  DIISMaxEq       ....     5
   Bias factor          DIISBfac        ....   1.050
   Max. coefficient     DIISMaxC        ....  10.000
 MO-DIIS                CNVKDIIS        .... off
 Trust-Rad. Augm. Hess. CNVTRAH         .... auto
   Auto Start mean grad. ratio tolernc. ....  1.125000
   Auto Start start iteration           ....    50
   Auto Start num. interpolation iter.  ....    10
   Max. Number of Micro iterations      ....    24
   Max. Number of Macro iterations      .... Maxiter - #DIIS iter
   Number of Davidson start vectors     ....     2
   Converg. threshold    (grad. norm)   ....   1.000e-05
   Grad. Scal. Fac. for Micro threshold ....   0.100
   Minimum threshold for Micro iter.    ....   1.000e-02
   NR start threshold (gradient norm)   ....   1.000e-04
   Initial trust radius                 ....   0.400
   Minimum AH scaling param. (alpha)    ....   1.000
   Maximum AH scaling param. (alpha)    .... 1000.000
   Quad. conv. algorithm                .... NR
   White noise on init. David. guess    .... on
   Maximum white noise                  ....   0.010
   Pseudo random numbers                .... off
   Inactive MOs                         .... canonical
   Orbital update algorithm             .... Taylor
   Preconditioner                       .... Diag
   Full preconditioner red. dimension   ....   250
   COSX micro iterations for RIJONX calc.... off
 SOSCF                 CNVSOSCF           .... on
   Start iteration     SOSCFMaxIt         ....   150
   Startup grad/error  SOSCFStart         ....  0.003300
   Hessian update      SOSCFHessUp        .... L-BFGS
   Autom. constraints  SOSCFAutoConstrain .... off
 Level Shifting         CNVShift        .... on
   Level shift para.    LevelShift      ....    0.2500
   Turn off err/grad.   ShiftErr        ....    0.0010
 Zerner damping         CNVZerner       .... off
 Static damping         CNVDamp         .... on
   Fraction old density DampFac         ....    0.7000
   Max. Damping (<1)    DampMax         ....    0.9800
   Min. Damping (>=0)   DampMin         ....    0.0000
   Turn off err/grad.   DampErr         ....    0.1000

SCF Procedure:
 Maximum # iterations   MaxIter         ....   125
 SCF integral mode      SCFMode         .... Direct
   Integral package                     .... SHARK and LIBINT hybrid scheme
 Reset frequency        DirectResetFreq ....    20
 Integral Threshold     Thresh          ....  2.500e-11 Eh
 Primitive CutOff       TCut            ....  2.500e-12 Eh

Convergence Tolerance:
 Convergence Check Mode ConvCheckMode   .... Total+1el-Energy
 Convergence forced     ConvForced      .... 0
 Energy Change          TolE            ....  1.000e-08 Eh
 1-El. energy change                    ....  1.000e-05 Eh
 Orbital Gradient       TolG            ....  1.000e-05
 Orbital Rotation angle TolX            ....  1.000e-05
 DIIS Error             TolErr          ....  5.000e-07

------------------------------
INITIAL GUESS: MODEL POTENTIAL
------------------------------
Loading Hartree-Fock densities                     ... done
Calculating cut-offs                               ... done
Initializing the effective Hamiltonian             ... done
Setting up the integral package (SHARK)            ... done
Starting the Coulomb interaction                   ... done (   0.1 sec)
Making the grid                                    ... done (   0.1 sec)
Mapping shells                                     ... done
Starting the XC term evaluation                    ... done (   0.1 sec)
  promolecular density results
     # of electrons  =     60.010783593
     EX              =    -45.853047489
     EC              =     -1.915077619
     EX+EC           =    -47.768125107
Transforming the Hamiltonian                       ... done (   0.0 sec)
Diagonalizing the Hamiltonian                      ... done (   0.0 sec)
Back transforming the eigenvectors                 ... done (   0.0 sec)
Now organizing SCF variables                       ... done
                      ------------------
                      INITIAL GUESS DONE (   0.3 sec)
                      ------------------
             **** ENERGY FILE WAS UPDATED (b12_hexagonal_prism_m1_freq.en.tmp) ****
Finished Guess after   0.4 sec
Maximum memory used throughout the entire GUESS-calculation: 10.9 MB


           ************************************************************
           *        Program running with 8 parallel MPI-processes     *
           *              working on a common directory               *
           ************************************************************

-------------------------------------------------------------------------------------------
                                      ORCA LEAN-SCF
                              memory conserving SCF solver
-------------------------------------------------------------------------------------------

----------------------------------------D-I-I-S--------------------------------------------
Iteration    Energy (Eh)           Delta-E    RMSDP     MaxDP     DIISErr   Damp  Time(sec)
-------------------------------------------------------------------------------------------
               ***  Starting incremental Fock matrix formation  ***
    1    -297.3039661602648493     0.00e+00  2.16e-01  2.36e+00  1.51e-01  0.700   0.5
Warning: op=0 Small HOMO/LUMO gap (   0.039) - skipping pre-diagonalization
         Will do a full diagonalization
    2    -297.5502890427495686    -2.46e-01  1.75e-01  2.01e+00  6.99e-02  0.700   0.5
                               ***Turning on AO-DIIS***
    3    -297.6351257831200883    -8.48e-02  7.96e-02  1.02e+00  2.54e-02  0.700   0.5
    4    -297.6834565580300023    -4.83e-02  1.16e-01  1.61e+00  1.27e-02  0.000   0.5
    5    -297.7963273789737286    -1.13e-01  9.38e-03  1.06e-01  9.59e-03  0.000   0.4
                              *** Initializing SOSCF ***
---------------------------------------S-O-S-C-F--------------------------------------
Iteration    Energy (Eh)           Delta-E    RMSDP     MaxDP     MaxGrad    Time(sec)
--------------------------------------------------------------------------------------
    6    -297.7989596511856689    -2.63e-03  5.08e-03  7.08e-02  2.88e-03     0.4
               *** Restarting incremental Fock matrix formation ***
    7    -297.7992733963368437    -3.14e-04  8.62e-03  1.12e-01  9.49e-04     0.5
    8    -297.7992942114044581    -2.08e-05  4.92e-03  6.03e-02  9.06e-04     0.4
    9    -297.7993244840436091    -3.03e-05  7.65e-04  7.87e-03  2.43e-04     0.4
   10    -297.7993222866913356     2.20e-06  1.50e-03  1.67e-02  3.60e-04     0.5
   11    -297.7993269231772047    -4.64e-06  2.79e-04  3.33e-03  4.44e-05     0.4
   12    -297.7993269054688881     1.77e-08  2.43e-04  3.16e-03  5.08e-05     0.4
   13    -297.7993270629567633    -1.57e-07  8.65e-04  1.10e-02  5.02e-06     0.3
   14    -297.7993270584887568     4.47e-09  8.71e-05  1.51e-03  1.46e-05     0.4
                 **** Energy Check signals convergence ****

               *****************************************************
               *                     SUCCESS                       *
               *           SCF CONVERGED AFTER  14 CYCLES          *
               *****************************************************

             **** ENERGY FILE WAS UPDATED (b12_hexagonal_prism_m1_freq.en.tmp) ****

----------------
TOTAL SCF ENERGY
----------------

Total Energy       :       -297.79932706159593 Eh           -8103.53166 eV

Components:
Nuclear Repulsion  :        381.73124816139978 Eh           10387.43535 eV
Electronic Energy  :       -679.53057522299571 Eh          -18490.96701 eV
One Electron Energy:      -1152.07608697581441 Eh          -31349.58411 eV
Two Electron Energy:        472.54551175281870 Eh           12858.61709 eV

Virial components:
Potential Energy   :       -594.16628307486985 Eh          -16168.08653 eV
Kinetic Energy     :        296.36695601327392 Eh            8064.55487 eV
Virial Ratio       :          2.00483309970717

DFT components:
N(Alpha)           :       29.999940385409 electrons
N(Beta)            :       29.999940385409 electrons
N(Total)           :       59.999880770819 electrons
E(X)               :      -46.827416178729 Eh       
E(C)               :       -1.913638670370 Eh       
E(XC)              :      -48.741054849099 Eh       

---------------
SCF CONVERGENCE
---------------

  Last Energy change         ...   -4.4680e-09  Tolerance :   1.0000e-08
  Last MAX-Density change    ...    1.5126e-03  Tolerance :   1.0000e-07
  Last RMS-Density change    ...    8.7117e-05  Tolerance :   5.0000e-09
  Last DIIS Error            ...    2.8757e-03  Tolerance :   5.0000e-07
  Last Orbital Gradient      ...    1.4601e-05  Tolerance :   1.0000e-05
  Last Orbital Rotation      ...    1.9403e-05  Tolerance :   1.0000e-05


----------------
ORBITAL ENERGIES
----------------

  NO   OCC          E(Eh)            E(eV) 
   0   2.0000      -6.678778      -181.7388 
   1   2.0000      -6.678756      -181.7382 
   2   2.0000      -6.678736      -181.7377 
   3   2.0000      -6.678730      -181.7375 
   4   2.0000      -6.662216      -181.2881 
   5   2.0000      -6.662199      -181.2877 
   6   2.0000      -6.662173      -181.2870 
   7   2.0000      -6.662165      -181.2867 
   8   2.0000      -6.660661      -181.2458 
   9   2.0000      -6.660657      -181.2457 
  10   2.0000      -6.660317      -181.2364 
  11   2.0000      -6.660315      -181.2364 
  12   2.0000      -0.791304       -21.5325 
  13   2.0000      -0.717282       -19.5182 
  14   2.0000      -0.573232       -15.5984 
  15   2.0000      -0.573164       -15.5966 
  16   2.0000      -0.530436       -14.4339 
  17   2.0000      -0.456711       -12.4277 
  18   2.0000      -0.456679       -12.4269 
  19   2.0000      -0.375172       -10.2089 
  20   2.0000      -0.358505        -9.7554 
  21   2.0000      -0.345414        -9.3992 
  22   2.0000      -0.344651        -9.3784 
  23   2.0000      -0.338176        -9.2022 
  24   2.0000      -0.338135        -9.2011 
  25   2.0000      -0.314951        -8.5703 
  26   2.0000      -0.289629        -7.8812 
  27   2.0000      -0.243872        -6.6361 
  28   2.0000      -0.216610        -5.8943 
  29   2.0000      -0.216578        -5.8934 
  30   0.0000      -0.168201        -4.5770 
  31   0.0000      -0.108302        -2.9471 
  32   0.0000      -0.108240        -2.9454 
  33   0.0000      -0.075104        -2.0437 
  34   0.0000      -0.057721        -1.5707 
  35   0.0000      -0.057582        -1.5669 
  36   0.0000      -0.057335        -1.5602 
  37   0.0000      -0.017157        -0.4669 
  38   0.0000      -0.017120        -0.4659 
  39   0.0000      -0.011163        -0.3038 
  40   0.0000       0.001512         0.0412 
*Only the first 10 virtual orbitals were printed.

                    ********************************
                    * MULLIKEN POPULATION ANALYSIS *
                    ********************************

-----------------------
MULLIKEN ATOMIC CHARGES
-----------------------
   0 B :    0.178384
   1 B :   -0.637364
   2 B :    0.458935
   3 B :    0.179084
   4 B :   -0.637609
   5 B :    0.458965
   6 B :    0.177754
   7 B :    0.459245
   8 B :   -0.637485
   9 B :    0.178039
  10 B :    0.459408
  11 B :   -0.637356
Sum of atomic charges:    0.0000000

--------------------------------
MULLIKEN REDUCED ORBITAL CHARGES
--------------------------------
  0 B s       :     2.469810  s :     2.469810
      pz      :     0.736635  p :     2.311322
      px      :     0.837957
      py      :     0.736731
      dz2     :     0.008700  d :     0.040484
      dxz     :     0.008990
      dyz     :     0.004404
      dx2y2   :     0.009410
      dxy     :     0.008979

  1 B s       :     3.636149  s :     3.636149
      pz      :     0.533030  p :     1.968290
      px      :     0.902179
      py      :     0.533081
      dz2     :     0.007880  d :     0.032925
      dxz     :     0.006739
      dyz     :     0.003218
      dx2y2   :     0.008355
      dxy     :     0.006733

  2 B s       :     2.384691  s :     2.384691
      pz      :     0.650164  p :     2.114824
      px      :     0.815196
      py      :     0.649464
      dz2     :     0.009939  d :     0.041550
      dxz     :     0.006907
      dyz     :     0.008019
      dx2y2   :     0.009799
      dxy     :     0.006886

  3 B s       :     2.469104  s :     2.469104
      pz      :     0.736710  p :     2.311326
      px      :     0.837806
      py      :     0.736810
      dz2     :     0.008704  d :     0.040486
      dxz     :     0.008990
      dyz     :     0.004407
      dx2y2   :     0.009409
      dxy     :     0.008976

  4 B s       :     3.636824  s :     3.636824
      pz      :     0.532847  p :     1.967864
      px      :     0.901920
      py      :     0.533097
      dz2     :     0.007877  d :     0.032921
      dxz     :     0.006742
      dyz     :     0.003216
      dx2y2   :     0.008353
      dxy     :     0.006733

  5 B s       :     2.384298  s :     2.384298
      pz      :     0.650605  p :     2.115172
      px      :     0.815090
      py      :     0.649477
      dz2     :     0.009942  d :     0.041565
      dxz     :     0.006913
      dyz     :     0.008026
      dx2y2   :     0.009799
      dxy     :     0.006885

  6 B s       :     2.470135  s :     2.470135
      pz      :     0.736664  p :     2.311629
      px      :     0.838666
      py      :     0.736299
      dz2     :     0.008702  d :     0.040482
      dxz     :     0.008966
      dyz     :     0.004432
      dx2y2   :     0.009402
      dxy     :     0.008980

  7 B s       :     2.383830  s :     2.383830
      pz      :     0.650193  p :     2.115347
      px      :     0.813426
      py      :     0.651728
      dz2     :     0.009946  d :     0.041578
      dxz     :     0.006892
      dyz     :     0.008046
      dx2y2   :     0.009776
      dxy     :     0.006917

  8 B s       :     3.636181  s :     3.636181
      pz      :     0.532864  p :     1.968385
      px      :     0.902611
      py      :     0.532911
      dz2     :     0.007880  d :     0.032918
      dxz     :     0.006749
      dyz     :     0.003204
      dx2y2   :     0.008323
      dxy     :     0.006763

  9 B s       :     2.470429  s :     2.470429
      pz      :     0.736612  p :     2.311061
      px      :     0.838253
      py      :     0.736196
      dz2     :     0.008697  d :     0.040471
      dxz     :     0.008965
      dyz     :     0.004428
      dx2y2   :     0.009401
      dxy     :     0.008981

 10 B s       :     2.383647  s :     2.383647
      pz      :     0.650590  p :     2.115375
      px      :     0.813180
      py      :     0.651605
      dz2     :     0.009941  d :     0.041570
      dxz     :     0.006897
      dyz     :     0.008044
      dx2y2   :     0.009772
      dxy     :     0.006916

 11 B s       :     3.635848  s :     3.635848
      pz      :     0.532896  p :     1.968581
      px      :     0.902826
      py      :     0.532859
      dz2     :     0.007877  d :     0.032927
      dxz     :     0.006755
      dyz     :     0.003204
      dx2y2   :     0.008325
      dxy     :     0.006766



                     *******************************
                     * LOEWDIN POPULATION ANALYSIS *
                     *******************************

----------------------
LOEWDIN ATOMIC CHARGES
----------------------
   0 B :   -0.059616
   1 B :    0.049793
   2 B :    0.010026
   3 B :   -0.059782
   4 B :    0.049848
   5 B :    0.009911
   6 B :   -0.059774
   7 B :    0.009741
   8 B :    0.049889
   9 B :   -0.059700
  10 B :    0.009773
  11 B :    0.049891

-------------------------------
LOEWDIN REDUCED ORBITAL CHARGES
-------------------------------
  0 B s       :     2.678261  s :     2.678261
      pz      :     0.826765  p :     2.303152
      px      :     0.649421
      py      :     0.826966
      dz2     :     0.016789  d :     0.078203
      dxz     :     0.017430
      dyz     :     0.008544
      dx2y2   :     0.018008
      dxy     :     0.017432

  1 B s       :     2.748634  s :     2.748634
      pz      :     0.598858  p :     2.136846
      px      :     0.939112
      py      :     0.598875
      dz2     :     0.014776  d :     0.064726
      dxz     :     0.013879
      dyz     :     0.006311
      dx2y2   :     0.015898
      dxy     :     0.013863

  2 B s       :     2.675679  s :     2.675679
      pz      :     0.726929  p :     2.235772
      px      :     0.782507
      py      :     0.726336
      dz2     :     0.018975  d :     0.078523
      dxz     :     0.013410
      dyz     :     0.013790
      dx2y2   :     0.018978
      dxy     :     0.013371

  3 B s       :     2.678214  s :     2.678214
      pz      :     0.826750  p :     2.303361
      px      :     0.649551
      py      :     0.827060
      dz2     :     0.016800  d :     0.078207
      dxz     :     0.017426
      dyz     :     0.008549
      dx2y2   :     0.018006
      dxy     :     0.017427

  4 B s       :     2.748704  s :     2.748704
      pz      :     0.598748  p :     2.136731
      px      :     0.939026
      py      :     0.598957
      dz2     :     0.014765  d :     0.064717
      dxz     :     0.013889
      dyz     :     0.006308
      dx2y2   :     0.015894
      dxy     :     0.013862

  5 B s       :     2.675622  s :     2.675622
      pz      :     0.727285  p :     2.235914
      px      :     0.782368
      py      :     0.726261
      dz2     :     0.018983  d :     0.078554
      dxz     :     0.013422
      dyz     :     0.013804
      dx2y2   :     0.018975
      dxy     :     0.013370

  6 B s       :     2.678198  s :     2.678198
      pz      :     0.826700  p :     2.303371
      px      :     0.650517
      py      :     0.826153
      dz2     :     0.016800  d :     0.078205
      dxz     :     0.017384
      dyz     :     0.008592
      dx2y2   :     0.018057
      dxy     :     0.017372

  7 B s       :     2.675522  s :     2.675522
      pz      :     0.727260  p :     2.236156
      px      :     0.780674
      py      :     0.728222
      dz2     :     0.018990  d :     0.078581
      dxz     :     0.013383
      dyz     :     0.013847
      dx2y2   :     0.018933
      dxy     :     0.013428

  8 B s       :     2.748765  s :     2.748765
      pz      :     0.598605  p :     2.136635
      px      :     0.939275
      py      :     0.598755
      dz2     :     0.014764  d :     0.064711
      dxz     :     0.013910
      dyz     :     0.006283
      dx2y2   :     0.015828
      dxy     :     0.013926

  9 B s       :     2.678297  s :     2.678297
      pz      :     0.826712  p :     2.303218
      px      :     0.650474
      py      :     0.826032
      dz2     :     0.016783  d :     0.078184
      dxz     :     0.017388
      dyz     :     0.008587
      dx2y2   :     0.018057
      dxy     :     0.017370

 10 B s       :     2.675551  s :     2.675551
      pz      :     0.727467  p :     2.236110
      px      :     0.780440
      py      :     0.728203
      dz2     :     0.018982  d :     0.078566
      dxz     :     0.013390
      dyz     :     0.013842
      dx2y2   :     0.018927
      dxy     :     0.013424

 11 B s       :     2.748714  s :     2.748714
      pz      :     0.598665  p :     2.136665
      px      :     0.939297
      py      :     0.598704
      dz2     :     0.014760  d :     0.064730
      dxz     :     0.013921
      dyz     :     0.006283
      dx2y2   :     0.015830
      dxy     :     0.013935



                      *****************************
                      * MAYER POPULATION ANALYSIS *
                      *****************************

  NA   - Mulliken gross atomic population
  ZA   - Total nuclear charge
  QA   - Mulliken gross atomic charge
  VA   - Mayer's total valence
  BVA  - Mayer's bonded valence
  FA   - Mayer's free valence

  ATOM       NA         ZA         QA         VA         BVA        FA
  0 B      4.8216     5.0000     0.1784     3.8747     3.8747     0.0000
  1 B      5.6374     5.0000    -0.6374     4.1763     4.1763     0.0000
  2 B      4.5411     5.0000     0.4589     2.4867     2.4867     0.0000
  3 B      4.8209     5.0000     0.1791     3.8732     3.8732    -0.0000
  4 B      5.6376     5.0000    -0.6376     4.1752     4.1752     0.0000
  5 B      4.5410     5.0000     0.4590     2.4864     2.4864    -0.0000
  6 B      4.8222     5.0000     0.1778     3.8773     3.8773    -0.0000
  7 B      4.5408     5.0000     0.4592     2.4842     2.4842    -0.0000
  8 B      5.6375     5.0000    -0.6375     4.1747     4.1747     0.0000
  9 B      4.8220     5.0000     0.1780     3.8762     3.8762    -0.0000
 10 B      4.5406     5.0000     0.4594     2.4844     2.4844     0.0000
 11 B      5.6374     5.0000    -0.6374     4.1751     4.1751    -0.0000

  Mayer bond orders larger than 0.100000
B(  0-B ,  1-B ) :   1.7770 B(  0-B ,  2-B ) :  -0.5373 B(  0-B ,  3-B ) :   0.5180 
B(  0-B ,  4-B ) :   0.1577 B(  0-B ,  5-B ) :   0.5481 B(  0-B ,  6-B ) :   0.2997 
B(  0-B ,  7-B ) :   0.5480 B(  0-B ,  8-B ) :   0.1571 B(  0-B ,  9-B ) :   0.5174 
B(  0-B , 10-B ) :  -0.5585 B(  0-B , 11-B ) :   0.4474 B(  1-B ,  2-B ) :   0.5184 
B(  1-B ,  3-B ) :   0.1569 B(  1-B ,  4-B ) :   0.5490 B(  1-B ,  5-B ) :  -0.1692 
B(  1-B ,  6-B ) :   0.4486 B(  1-B ,  7-B ) :  -0.1694 B(  1-B ,  8-B ) :   0.5490 
B(  1-B ,  9-B ) :   0.1574 B(  1-B , 10-B ) :  -0.1115 B(  1-B , 11-B ) :   0.4700 
B(  2-B ,  3-B ) :   0.5485 B(  2-B ,  4-B ) :  -0.1686 B(  2-B ,  5-B ) :   0.8254 
B(  2-B ,  6-B ) :  -0.5588 B(  2-B ,  7-B ) :   0.8257 B(  2-B ,  8-B ) :  -0.1689 
B(  2-B ,  9-B ) :   0.5487 B(  2-B , 10-B ) :   0.7648 B(  2-B , 11-B ) :  -0.1112 
B(  3-B ,  4-B ) :   1.7751 B(  3-B ,  5-B ) :  -0.5373 B(  3-B ,  6-B ) :   0.5182 
B(  3-B ,  7-B ) :  -0.5587 B(  3-B ,  8-B ) :   0.4471 B(  3-B ,  9-B ) :   0.3004 
B(  3-B , 10-B ) :   0.5483 B(  3-B , 11-B ) :   0.1568 B(  4-B ,  5-B ) :   0.5179 
B(  4-B ,  6-B ) :   0.1579 B(  4-B ,  7-B ) :  -0.1117 B(  4-B ,  8-B ) :   0.4704 
B(  4-B ,  9-B ) :   0.4476 B(  4-B , 10-B ) :  -0.1692 B(  4-B , 11-B ) :   0.5491 
B(  5-B ,  6-B ) :   0.5488 B(  5-B ,  7-B ) :   0.7653 B(  5-B ,  8-B ) :  -0.1115 
B(  5-B ,  9-B ) :  -0.5580 B(  5-B , 10-B ) :   0.8257 B(  5-B , 11-B ) :  -0.1688 
B(  6-B ,  7-B ) :   0.5479 B(  6-B ,  8-B ) :   0.1576 B(  6-B ,  9-B ) :   0.5180 
B(  6-B , 10-B ) :  -0.5372 B(  6-B , 11-B ) :   1.7766 B(  7-B ,  8-B ) :   0.5171 
B(  7-B ,  9-B ) :  -0.5367 B(  7-B , 10-B ) :   0.8257 B(  7-B , 11-B ) :  -0.1690 
B(  8-B ,  9-B ) :   1.7763 B(  8-B , 10-B ) :  -0.1690 B(  8-B , 11-B ) :   0.5495 
B(  9-B , 10-B ) :   0.5477 B(  9-B , 11-B ) :   0.1573 B( 10-B , 11-B ) :   0.5175 


-------
TIMINGS
-------

Total SCF time: 0 days 0 hours 0 min 6 sec 

Total time                  ....       6.644 sec
Sum of individual times     ....       6.266 sec  ( 94.3%)

SCF preparation             ....       0.106 sec  (  1.6%)
Fock matrix formation       ....       5.082 sec  ( 76.5%)
  Startup                   ....       0.028 sec  (  0.6% of F)
  Split-RI-J                ....       0.702 sec  ( 13.8% of F)
  XC integration            ....       4.343 sec  ( 85.5% of F)
    Basis function eval.    ....       0.547 sec  ( 12.6% of XC)
    Density eval.           ....       1.371 sec  ( 31.6% of XC)
    XC-Functional eval.     ....       0.115 sec  (  2.6% of XC)
    XC-Potential eval.      ....       1.713 sec  ( 39.4% of XC)
Diagonalization             ....       0.000 sec  (  0.0%)
Density matrix formation    ....       0.271 sec  (  4.1%)
Total Energy calculation    ....       0.124 sec  (  1.9%)
Population analysis         ....       0.039 sec  (  0.6%)
Orbital Transformation      ....       0.035 sec  (  0.5%)
Orbital Orthonormalization  ....       0.000 sec  (  0.0%)
DIIS solution               ....       0.246 sec  (  3.7%)
SOSCF solution              ....       0.363 sec  (  5.5%)
Finished LeanSCF after   6.7 sec

Maximum memory used throughout the entire LEANSCF-calculation: 13.2 MB


           ************************************************************
           *        Program running with 8 parallel MPI-processes     *
           *              working on a common directory               *
           ************************************************************

------------------------------------------------------------------------------
                         ORCA PROPERTY INTEGRAL CALCULATIONS
------------------------------------------------------------------------------

GBWName                                   ... b12_hexagonal_prism_m1_freq.gbw
Number of atoms                           ...     12
Number of basis functions                 ...    228
Max core memory                           ...   1500 MB

Dipole integrals                          ... YES
Quadrupole integrals                      ...  NO
Linear momentum integrals                 ...  NO
Angular momentum integrals                ...  NO
Higher moments length integrals           ...  NO
Higher moments velocity integrals         ...  NO
Kinetic energy integrals                  ...  NO
GIAO right hand sides                     ...  NO
GIAO dipole derivative integrals          ...  NO
SOC integrals                             ...  NO
EPR diamagnetic integrals (GIAO)          ...  NO
EPR gauge integrals                       ...  NO
Field gradient integrals                  ...  NO (   0 nuclei)
Spin-dipole/Fermi contact integrals       ...  NO (   0 nuclei)
Contact density integrals                 ...  NO (   0 nuclei)
Nucleus-orbit integrals                   ...  NO (   0 nuclei)
Geometric perturbations                   ... YES (  12 nuclei)

Choice of electric origin   ... Center of mass
Position of electric origin ... (  0.0000,  0.0000, -0.0000) 
Choice of magnetic origin   ... GIAO
Position of magnetic origin ... (  0.0000,  0.0000,  0.0000) 

Calculating integrals                     ... Electric Dipole (Length)     done (  0.0 sec)
Calculating integrals                     ... Geometrical perturbation right hand sides

-----------------------
GEOMETRIC PERTURBATIONS (12 nuclei)
-----------------------

MaxCore                            ...   1500 MB
Number of batches                  ...      1

BATCH   0: Atoms    0 -   11 ( 36 perturbations)
   => H(core) and overlap derivative integrals     ... done (     0.1 sec)
   => Making and storing internal U-coefficients   ... done (     0.1 sec)
   => RI-J derivative integrals                    ... done (     0.6 sec)
   => RI-J response operators                      ... done (     0.2 sec)
   => XC derivative integrals                      ... done (    28.4 sec)
   => XC response operators                        ... done (     8.0 sec)
   => Completing and storing right hand sides      ... done (     0.0 sec)
   => Total time for right hand sides =  37.8 sec

  geometrical perturbations done ( 37.8 sec)

Property integrals calculated in  37.8 sec

Maximum memory used throughout the entire PROPINT-calculation: 81.5 MB


-------------------------------------------------------------------------------
                          DFT DISPERSION CORRECTION                            
                                                                               
                                DFTD4 V3.4.0                                   
-------------------------------------------------------------------------------
The R2SCAN3C composite method is recognized
Using three-body term ABC
Active option DFTDOPT                   ...         5   

-------------------------   ----------------
Dispersion correction           -0.005923073
-------------------------   ----------------

------------------   -----------------
gCP correction             0.010841455
------------------   -----------------

-------------------------   --------------------
FINAL SINGLE POINT ENERGY      -297.794408679930
-------------------------   --------------------



           ************************************************************
           *        Program running with 8 parallel MPI-processes     *
           *              working on a common directory               *
           ************************************************************
------------------------------------------------------------------------------
                            ORCA SCF RESPONSE CALCULATION
------------------------------------------------------------------------------

GBWName                                 ... b12_hexagonal_prism_m1_freq.gbw
Number of atoms                         ...     12
Number of basis functions               ...    228
Max core memory                         ...   1500 MB

Electric field perturbation             ...  NO
Quadrupolar field perturbation          ...  NO
Magnetic field perturbation (no GIAO)   ...  NO
Magnetic field perturbation (with GIAO) ...  NO
Linear momentum (velocity) perturbation ...  NO
Spin-orbit coupling perturbation        ...  NO
Choice of electric origin               ... Center of mass
Position of electric origin             ...     0.000000     0.000000    -0.000000
Choice of magnetic origin               ... GIAO
Position of magnetic origin             ...     0.000000     0.000000     0.000000
Nuclear geometric perturbations         ... YES (  36 perturbations)
Nucleus-orbit perturbations             ...  NO (   0 perturbations)
Spin-dipole/Fermi contact perturbations ...  NO (   0 perturbations)

Total number of real perturbations      ...     36
Total number of imaginary perturbations ...      0
Total number of triplet perturbations   ...      0
Total number of SOC perturbations       ...      0

Using XC Grid                  ... (b12_hexagonal_prism_m1_freq.grid_cpscf.tmp) 
Recalculating density on grid  ... (b12_hexagonal_prism_m1_freq.grho_cpscf0.tmp) done
Calculating the xc-kernel      ... (b12_hexagonal_prism_m1_freq.fxc_cpscf0.tmp) done

                                **********************
                                * REAL PERTURBATIONS *
                                **********************



-------------------
SHARK CP-SCF DRIVER
-------------------

Dimension of the orbital basis          ...    228
Dimension of the CPSCF-problem          ...   5940
Number of operators                     ...      1
Max. number of iterations               ...    128
Convergence Tolerance                   ... 1.0e-04
Number of perturbations                 ...     36
Perturbation type                       ... REAL

----------------------------
POPLE LINEAR EQUATION SOLVER
----------------------------

  ITERATION   0:   ||err||_max =   1.0583e+00 (   3.1 sec   0/ 36 done)
  ITERATION   1:   ||err||_max =   1.4745e-01 (   2.7 sec   0/ 36 done)
  ITERATION   2:   ||err||_max =   5.1607e-02 (   2.8 sec   0/ 36 done)
  ITERATION   3:   ||err||_max =   2.2210e-02 (   2.8 sec   0/ 36 done)
  ITERATION   4:   ||err||_max =   6.3600e-03 (   3.1 sec   0/ 36 done)
  ITERATION   5:   ||err||_max =   3.1082e-03 (   3.1 sec   0/ 36 done)
  ITERATION   6:   ||err||_max =   1.1108e-03 (   3.1 sec   0/ 36 done)
  ITERATION   7:   ||err||_max =   4.1458e-04 (   2.9 sec   0/ 36 done)
  ITERATION   8:   ||err||_max =   1.4898e-04 (   2.7 sec  28/ 36 done)
  ITERATION   9:   ||err||_max =   3.6486e-05 (   1.2 sec  36/ 36 done)

CP-SCF equations solved in  30.7 sec
Response densities calculated in   0.0 sec

Maximum memory used throughout the entire SCFRESP-calculation: 52.5 MB


           ************************************************************
           *        Program running with 8 parallel MPI-processes     *
           *              working on a common directory               *
           ************************************************************

------------------------------------------------------------------------------
                              ORCA PROPERTY CALCULATIONS
------------------------------------------------------------------------------

GBWName                                 ... b12_hexagonal_prism_m1_freq.gbw
Number of atoms                         ...     12
Number of basis functions               ...    228
Max core memory                         ...   1500 MB

Electric properties:
Dipole moment                           ... YES
Quadrupole moment                       ...  NO
Static polarizability (Dipole/Dipole)   ...  NO
Static polarizability (Dipole/Quad.)    ...  NO
Static polarizability (Quad./Quad.)     ...  NO
Static polarizability (Velocity)        ...  NO
Static hyperpolarizability              ...  NO

Atomic electric properties:
Dipole moment                           ...  NO
Quadrupole moment                       ...  NO
Static polarizability                   ...  NO

Choice of electric origin               ... Center of mass
Position of electric origin             ...     0.000000     0.000000    -0.000000

General magnetic properties:
Magnetizability                         ...  NO

EPR properties:
g-Tensor (aka g-matrix)                 ...  NO
Zero-Field splitting spin-orbit         ...  NO
Zero-field splitting spin-spin          ...  NO
Hyperfine couplings                     ...  NO (   0 nuclei)
Quadrupole couplings                    ...  NO (   0 nuclei)
Contact density                         ...  NO (   0 nuclei)

NMR properties:
Chemical shifts                         ...  NO (   0 nuclei)
Spin-rotation constants                 ...  NO (   0 nuclei)
Spin-spin couplings                     ...  NO (   0 nuclei,    0 pairs)

Choice of magnetic origin               ... GIAO
Position of magnetic origin             ...     0.000000     0.000000     0.000000

Properties with geometric perturbations:
SCF Hessian                             ... YES
IR spectrum                             ... YES
VCD spectrum                            ...  NO
X-ray spectroscopy properties:
SCF XES/XAS/RIXS spectra                ...  NO

SCF SOC stabilization energy            ...  NO
Diagonal Born-Oppenheimer correction    ...  NO

-------------
DIPOLE MOMENT
-------------

Method             : SCF
Type of density    : Electron Density
Multiplicity       :   1
Irrep              :   0
Energy             :  -297.7993270615959318 Eh
Basis              : AO
                                X                 Y                 Z
Electronic contribution:      0.000056967       0.000192522      -0.000027824
Nuclear contribution   :      0.000000000       0.000000000      -0.000000000
                        -----------------------------------------
Total Dipole Moment    :      0.000056967       0.000192522      -0.000027824
                        -----------------------------------------
Magnitude (a.u.)       :      0.000202692
Magnitude (Debye)      :      0.000515203



--------------------
Rotational spectrum 
--------------------
 
Rotational constants in cm-1:             0.090893             0.054457             0.054453 
Rotational constants in MHz :          2724.899914          1632.591036          1632.460962 

Dipole components along the rotational axes: 
x,y,z [a.u.] :    -0.000056     0.000011     0.000194 
x,y,z [Debye]:    -0.000143     0.000029     0.000494 

 

Dipole moment calculation done in   0.0 sec 

-----------
SCF HESSIAN
-----------

Occupied/Occupied contributions to the Hessian:
   => Occupied/Occupied contributions              ... done (  0.0 sec)
Perturbed density contributions to the Hessian:
   => Perturbed density contributions              ... done (  0.0 sec)
Explicit contributions to the Hessian:
   => Nuclear repulsion Hessian                    ... done (  0.0 sec)
   => HCore and overlap Hessian                    ... done (  0.7 sec)
   => RI-J Hessian                                 ... done (  1.2 sec)
   => XC-Hessian                                   ... done (  8.6 sec)
   => Van der Waals-Hessian                        ... done (  0.4 sec)
   => GCP-Hessian                                  ... done (  0.0 sec)
   => Explicit contributions done
Dipole derivatives                                 ... done (  0.0 sec)
Mass weighting the Hessian           ... done
Calculating normal modes             ... done
Scaling frequencies                  ... done

-----------------------
VIBRATIONAL FREQUENCIES
-----------------------

Scaling factor for frequencies =  1.000000000  (already applied!)

     0:       0.00 cm**-1
     1:       0.00 cm**-1
     2:       0.00 cm**-1
     3:       0.00 cm**-1
     4:       0.00 cm**-1
     5:       0.00 cm**-1
     6:     313.78 cm**-1
     7:     313.89 cm**-1
     8:     336.42 cm**-1
     9:     352.17 cm**-1
    10:     406.97 cm**-1
    11:     407.39 cm**-1
    12:     407.54 cm**-1
    13:     410.72 cm**-1
    14:     417.64 cm**-1
    15:     510.93 cm**-1
    16:     511.12 cm**-1
    17:     526.77 cm**-1
    18:     617.93 cm**-1
    19:     638.41 cm**-1
    20:     642.60 cm**-1
    21:     676.35 cm**-1
    22:     676.66 cm**-1
    23:     690.25 cm**-1
    24:     781.43 cm**-1
    25:     781.83 cm**-1
    26:     782.77 cm**-1
    27:     879.09 cm**-1
    28:    1073.19 cm**-1
    29:    1073.39 cm**-1
    30:    1088.98 cm**-1
    31:    1110.65 cm**-1
    32:    1283.96 cm**-1
    33:    1284.26 cm**-1
    34:    1320.36 cm**-1
    35:    1325.78 cm**-1


------------
NORMAL MODES
------------

These modes are the Cartesian displacements weighted by the diagonal matrix
M(i,i)=1/sqrt(m[i]) where m[i] is the mass of the displaced atom
Thus, these vectors are normalized but *not* orthogonal

                  0          1          2          3          4          5    
      0       0.000000   0.000000   0.000000   0.000000   0.000000   0.000000
      1       0.000000   0.000000   0.000000   0.000000   0.000000   0.000000
      2       0.000000   0.000000   0.000000   0.000000   0.000000   0.000000
      3       0.000000   0.000000   0.000000   0.000000   0.000000   0.000000
      4       0.000000   0.000000   0.000000   0.000000   0.000000   0.000000
      5       0.000000   0.000000   0.000000   0.000000   0.000000   0.000000
      6       0.000000   0.000000   0.000000   0.000000   0.000000   0.000000
      7       0.000000   0.000000   0.000000   0.000000   0.000000   0.000000
      8       0.000000   0.000000   0.000000   0.000000   0.000000   0.000000
      9       0.000000   0.000000   0.000000   0.000000   0.000000   0.000000
     10       0.000000   0.000000   0.000000   0.000000   0.000000   0.000000
     11       0.000000   0.000000   0.000000   0.000000   0.000000   0.000000
     12       0.000000   0.000000   0.000000   0.000000   0.000000   0.000000
     13       0.000000   0.000000   0.000000   0.000000   0.000000   0.000000
     14       0.000000   0.000000   0.000000   0.000000   0.000000   0.000000
     15       0.000000   0.000000   0.000000   0.000000   0.000000   0.000000
     16       0.000000   0.000000   0.000000   0.000000   0.000000   0.000000
     17       0.000000   0.000000   0.000000   0.000000   0.000000   0.000000
     18       0.000000   0.000000   0.000000   0.000000   0.000000   0.000000
     19       0.000000   0.000000   0.000000   0.000000   0.000000   0.000000
     20       0.000000   0.000000   0.000000   0.000000   0.000000   0.000000
     21       0.000000   0.000000   0.000000   0.000000   0.000000   0.000000
     22       0.000000   0.000000   0.000000   0.000000   0.000000   0.000000
     23       0.000000   0.000000   0.000000   0.000000   0.000000   0.000000
     24       0.000000   0.000000   0.000000   0.000000   0.000000   0.000000
     25       0.000000   0.000000   0.000000   0.000000   0.000000   0.000000
     26       0.000000   0.000000   0.000000   0.000000   0.000000   0.000000
     27       0.000000   0.000000   0.000000   0.000000   0.000000   0.000000
     28       0.000000   0.000000   0.000000   0.000000   0.000000   0.000000
     29       0.000000   0.000000   0.000000   0.000000   0.000000   0.000000
     30       0.000000   0.000000   0.000000   0.000000   0.000000   0.000000
     31       0.000000   0.000000   0.000000   0.000000   0.000000   0.000000
     32       0.000000   0.000000   0.000000   0.000000   0.000000   0.000000
     33       0.000000   0.000000   0.000000   0.000000   0.000000   0.000000
     34       0.000000   0.000000   0.000000   0.000000   0.000000   0.000000
     35       0.000000   0.000000   0.000000   0.000000   0.000000   0.000000
                  6          7          8          9         10         11    
      0      -0.041341   0.062305   0.008846   0.000092  -0.165140   0.171401
      1       0.041692   0.110574  -0.033508   0.039348   0.116766   0.144486
      2      -0.118098   0.002780  -0.033208  -0.039192  -0.068684  -0.194052
      3      -0.092907   0.135847   0.235898   0.000331  -0.153809   0.157901
      4      -0.424577  -0.080187   0.206761   0.311944  -0.095806  -0.169280
      5       0.232603   0.363380   0.206066  -0.312800   0.123277   0.139552
      6      -0.121711   0.180628   0.301368  -0.001064  -0.148142   0.150956
      7       0.092886   0.024879  -0.089211  -0.161245  -0.050042  -0.408304
      8      -0.058405  -0.076107  -0.088463   0.161409   0.371283   0.078356
      9       0.061614   0.042194  -0.008844  -0.000128  -0.181142  -0.152957
     10       0.002731   0.118071   0.033533  -0.039543   0.098246  -0.156489
     11      -0.110598   0.041522  -0.033164  -0.039300   0.045277  -0.200598
     12       0.137104   0.090987  -0.235728  -0.000609  -0.168476  -0.140583
     13       0.363639  -0.233444  -0.206820  -0.311769  -0.076234   0.179331
     14       0.079355  -0.424362   0.205940  -0.312278  -0.106775   0.152938
     15       0.180521   0.122247  -0.301450   0.001199  -0.162258  -0.134304
     16      -0.076752   0.057974   0.089235   0.161139  -0.005747   0.410466
     17      -0.025674   0.092647  -0.088398   0.161351  -0.356949   0.116585
     18       0.042016  -0.061353   0.009139   0.000068   0.165760  -0.170293
     19       0.041840   0.111054   0.033616  -0.039563   0.121582  -0.034045
     20      -0.118547   0.002776   0.033215   0.039349  -0.074690  -0.014121
     21      -0.180728  -0.122030  -0.302233   0.000370   0.161558   0.135690
     22      -0.075480   0.058576  -0.087628  -0.161190   0.006335   0.243540
     23      -0.025063   0.092963   0.088527  -0.161318  -0.343807  -0.048652
     24      -0.134777  -0.092510  -0.234776   0.001428   0.168219   0.140579
     25       0.364371  -0.232994   0.208412   0.311603  -0.110895   0.070942
     26       0.080192  -0.424746  -0.206200   0.312513  -0.143202   0.045935
     27      -0.062134  -0.041153  -0.009183  -0.000133   0.183189   0.151526
     28       0.002840   0.118737  -0.033426   0.039410   0.127908   0.021262
     29      -0.110867   0.041833   0.033227   0.039345   0.076253  -0.021738
     30       0.121864  -0.181049   0.302329  -0.000339   0.147427  -0.152222
     31       0.092026   0.026202   0.087746   0.161525  -0.015857  -0.242180
     32      -0.058265  -0.076889   0.088442  -0.161484   0.333975  -0.085722
     33       0.090480  -0.136113   0.234634  -0.001215   0.152815  -0.157693
     34      -0.425216  -0.079441  -0.208709  -0.311659  -0.116255  -0.059729
     35       0.233368   0.364204  -0.205985   0.312406   0.144041   0.031517
                 12         13         14         15         16         17    
      0       0.067195  -0.007276  -0.302897   0.104735   0.179005   0.173848
      1      -0.193700   0.166398  -0.007086  -0.036129   0.018273   0.000281
      2       0.175095  -0.163295  -0.006493   0.034721  -0.020069   0.001634
      3       0.061776  -0.008953  -0.147879  -0.021558  -0.038988  -0.008479
      4       0.079955  -0.244023   0.194747  -0.040777  -0.335763  -0.280703
      5      -0.094426   0.242311   0.196049  -0.272339  -0.202430  -0.281790
      6       0.058617  -0.008225  -0.046147  -0.113604  -0.194860  -0.164908
      7       0.068453   0.207184   0.168939  -0.128380   0.263040   0.133218
      8      -0.197542  -0.189896   0.163804   0.290763   0.018078   0.132667
      9      -0.069579  -0.011731   0.303418  -0.179753   0.103703   0.172761
     10       0.196694   0.163587   0.009443   0.022144   0.033501   0.000715
     11       0.177420   0.160639  -0.004142   0.020006   0.034713  -0.001205
     12      -0.063978  -0.011360   0.148175   0.038144  -0.023076  -0.008357
     13      -0.083426  -0.239827  -0.198713   0.202621  -0.271329  -0.279875
     14      -0.098723  -0.243885   0.192779  -0.337677   0.041227   0.280138
     15      -0.060676  -0.008729   0.046215   0.196321  -0.112880  -0.164378
     16      -0.066656   0.212049  -0.165320  -0.018808   0.292158   0.133714
     17      -0.200224   0.189766   0.167387   0.263160   0.127990  -0.131553
     18      -0.060390   0.011675  -0.305770  -0.104000  -0.178384   0.172431
     19       0.245636  -0.152628   0.009409  -0.033972   0.020730  -0.002459
     20      -0.263994   0.155328   0.005528   0.033613  -0.021237  -0.001335
     21       0.061090   0.008326   0.047583  -0.195630   0.114837  -0.165931
     22       0.332797  -0.213044   0.169436  -0.017036   0.291766  -0.132009
     23       0.206477  -0.230555  -0.165307   0.263341   0.128830   0.133942
     24       0.061558   0.008911   0.150635  -0.038004   0.021338  -0.007550
     25       0.178424   0.226816   0.200316   0.201417  -0.273024   0.281401
     26       0.173699   0.228509  -0.193065  -0.334582   0.041447  -0.280798
     27       0.062346   0.006912   0.305634   0.177344  -0.104264   0.172866
     28      -0.245528  -0.149760  -0.012112   0.019005   0.034937  -0.002792
     29      -0.264559  -0.152749   0.002790   0.018510   0.035180   0.001048
     30      -0.058684   0.009363  -0.048084   0.114060   0.196464  -0.165266
     31      -0.334710  -0.207865  -0.172492  -0.128749   0.262564  -0.132238
     32       0.213557   0.230778  -0.162821   0.292464   0.018052  -0.132404
     33      -0.059274   0.011087  -0.150884   0.021946   0.037105  -0.007036
     34      -0.177938   0.231113  -0.196568  -0.041337  -0.336854   0.280748
     35       0.173221  -0.226952  -0.196510  -0.271979  -0.201781   0.279655
                 18         19         20         21         22         23    
      0      -0.001260   0.063669  -0.062933   0.026244   0.034541   0.001403
      1      -0.281262   0.053590   0.177796  -0.335358  -0.022491   0.257228
      2       0.281845   0.051077   0.179304   0.056396  -0.327446  -0.259379
      3      -0.000325   0.061658  -0.192849   0.111061   0.139599   0.000982
      4       0.001617   0.185885   0.087408   0.118212   0.187436   0.086198
      5      -0.000936   0.185817   0.087600   0.158288   0.158362  -0.082133
      6       0.000598  -0.123497  -0.074243  -0.137392  -0.172947  -0.002019
      7       0.213783   0.275066  -0.249381   0.180801   0.122924   0.226783
      8      -0.213271   0.276769  -0.247991   0.080879   0.204371  -0.224783
      9      -0.001014   0.063796   0.062553   0.032969  -0.028135  -0.001149
     10      -0.281759   0.054043  -0.178413  -0.327421  -0.054045  -0.261962
     11      -0.281345  -0.052043   0.179414   0.021968  -0.332238  -0.258267
     12       0.000312   0.061266   0.192987   0.138648  -0.111332   0.000918
     13       0.001767   0.185461  -0.086700   0.158956  -0.156551  -0.083945
     14       0.000405  -0.185812   0.086749  -0.188725   0.119844  -0.084888
     15       0.000467  -0.123499   0.073754  -0.172863   0.138208  -0.001080
     16       0.214012   0.274953   0.250029   0.206417  -0.078706  -0.224361
     17       0.211734  -0.275787  -0.248410  -0.120337   0.182728  -0.226691
     18       0.001325   0.063503  -0.064369  -0.028091  -0.034740  -0.001334
     19       0.281802  -0.053466  -0.178125  -0.330245  -0.018100  -0.262454
     20      -0.281202  -0.051851  -0.180183   0.052028  -0.330320   0.256770
     21      -0.001046  -0.125723   0.072020   0.173895  -0.138542   0.001387
     22      -0.214246  -0.274885  -0.250162   0.201394  -0.079803   0.226775
     23      -0.212043   0.276636   0.248897  -0.124424   0.178577   0.227339
     24       0.000223   0.060621   0.193870  -0.138268   0.110114   0.000699
     25      -0.001247  -0.186323   0.085963   0.157156  -0.157764   0.085144
     26      -0.000508   0.186624  -0.087580  -0.188847   0.118574   0.082523
     27       0.001377   0.063089   0.064981  -0.035057   0.027112   0.001298
[...]
     23      -0.017042  -0.245336  -0.074870   0.024198  -0.128280   0.191724
     24       0.201463  -0.102788  -0.103427  -0.180859  -0.021960   0.024504
     25       0.023930   0.018333   0.162345   0.034161  -0.088823   0.100897
     26      -0.009026   0.014427  -0.164111  -0.033834   0.090928  -0.099677
     27       0.362718  -0.189553  -0.257041   0.005695   0.175251  -0.198891
     28      -0.305359   0.012850   0.104007  -0.302642  -0.098392  -0.175794
     29       0.195679  -0.237901  -0.090266   0.302976  -0.188047  -0.080961
     30       0.026285   0.019558  -0.244645   0.174917  -0.331494  -0.299539
     31       0.242137  -0.026547  -0.081192  -0.024595   0.190564   0.128806
     32      -0.162391   0.165880  -0.111380  -0.024210   0.147530   0.176724
     33      -0.098099  -0.188586   0.128885  -0.180805  -0.024311  -0.021885
     34      -0.021575  -0.026855  -0.161454   0.034612  -0.098796  -0.090730
     35       0.010556  -0.042546  -0.159021   0.034399  -0.100645  -0.089244
                 30         31         32         33         34         35    
      0      -0.298290  -0.004381   0.071431  -0.369268   0.199533  -0.271313
      1      -0.085301  -0.265193   0.020524   0.103031  -0.150155   0.092638
      2      -0.087506  -0.266219  -0.055986   0.087155  -0.150008   0.091481
      3       0.034214   0.012505  -0.095835   0.498965  -0.350067   0.352149
      4      -0.090742   0.075214   0.018098  -0.088019   0.045426  -0.066864
      5      -0.090642   0.075190   0.015778  -0.087096   0.044516  -0.065970
      6       0.262779  -0.248546   0.045806  -0.237454   0.148061  -0.175593
      7       0.166521  -0.130734   0.032249  -0.062028   0.046894  -0.033888
      8       0.167199  -0.131579  -0.006918  -0.070250   0.047156  -0.034511
      9      -0.299830   0.003567  -0.370009  -0.071141   0.209050   0.262921
     10      -0.084982   0.265332   0.088262   0.057168  -0.153550  -0.086735
     11       0.088889  -0.266507  -0.101850   0.019852   0.153221   0.085526
     12       0.034717  -0.012197   0.499917   0.096646  -0.362323  -0.337802
     13      -0.091123  -0.075468  -0.088523  -0.015925   0.047761   0.064891
     14       0.091071   0.075546   0.086477   0.017684  -0.046579  -0.063815
     15       0.263917   0.249123  -0.238210  -0.045956   0.154278   0.169652
     16       0.166865   0.131082  -0.069797   0.006790   0.048059   0.032051
     17      -0.168556  -0.132312   0.063241   0.032697  -0.048546  -0.032919
     18      -0.301242  -0.001857  -0.070269   0.366442   0.204021  -0.274913
     19       0.087415   0.266060   0.019982   0.098633   0.150134  -0.091422
     20       0.085886   0.265926  -0.056957   0.084951   0.150544  -0.092452
     21       0.265352   0.250142   0.233294   0.045115   0.156418   0.171378
     22      -0.170142  -0.133324  -0.069896   0.007008  -0.049395  -0.033703
     23       0.169168   0.132934   0.061853   0.032325   0.049217   0.033260
     24       0.035169  -0.012786  -0.492608  -0.094545  -0.368793  -0.343286
     25       0.091477   0.075585  -0.084527  -0.015229  -0.046760  -0.063840
     26      -0.091803  -0.075641   0.085831   0.017615   0.048041   0.065062
     27      -0.299581   0.001737   0.365731   0.070740   0.214988   0.267331
     28       0.088625  -0.265701   0.083842   0.055267   0.153722   0.086050
     29      -0.085402   0.265522  -0.100010   0.020889  -0.154426  -0.087204
     30       0.267750  -0.249517  -0.044854   0.234117   0.149658  -0.176884
     31      -0.170831   0.132831   0.032504  -0.062476  -0.048016   0.035401
     32      -0.170790   0.132862  -0.006934  -0.069871  -0.048040   0.035130
     33       0.035045   0.012209   0.095605  -0.493660  -0.354824   0.356361
     34       0.092219  -0.075685   0.017282  -0.084220  -0.044120   0.065423
     35       0.092487  -0.075722   0.015476  -0.085951  -0.045094   0.066414


-----------
IR SPECTRUM
-----------

 Mode   freq       eps      Int      T**2         TX        TY        TZ
       cm**-1   L/(mol*cm) km/mol    a.u.
----------------------------------------------------------------------------
  6:    313.78   0.000734    3.71  0.000730  (-0.000013 -0.005164  0.026514)
  7:    313.89   0.000735    3.72  0.000731  (-0.000105 -0.026546 -0.005148)
  8:    336.42   0.000000    0.00  0.000000  ( 0.000014  0.000009  0.000027)
  9:    352.17   0.000000    0.00  0.000000  ( 0.000006  0.000017 -0.000017)
 10:    406.97   0.000055    0.28  0.000042  (-0.000058  0.006496 -0.000286)
 11:    407.39   0.000048    0.24  0.000037  (-0.000005 -0.000343 -0.006059)
 12:    407.54   0.000009    0.04  0.000007  ( 0.000016  0.000050 -0.002555)
 13:    410.72   0.000000    0.00  0.000000  ( 0.000050  0.000418 -0.000008)
 14:    417.64   0.000000    0.00  0.000000  (-0.000022 -0.000004  0.000009)
 15:    510.93   0.000481    2.43  0.000293  ( 0.000034 -0.004394  0.016559)
 16:    511.12   0.000482    2.44  0.000294  ( 0.000079  0.016583  0.004381)
 17:    526.77   0.000713    3.60  0.000422  (-0.020546  0.000047  0.000043)
 18:    617.93   0.000000    0.00  0.000000  ( 0.000170 -0.000014 -0.000013)
 19:    638.41   0.000264    1.33  0.000129  ( 0.011355 -0.000014 -0.000041)
 20:    642.60   0.000000    0.00  0.000000  (-0.000001 -0.000040  0.000013)
 21:    676.35   0.000063    0.32  0.000029  (-0.000002 -0.005340  0.000629)
 22:    676.66   0.000061    0.31  0.000028  (-0.000010 -0.000587 -0.005264)
 23:    690.25   0.000000    0.00  0.000000  (-0.000004 -0.000067 -0.000013)
 24:    781.43   0.001611    8.14  0.000643  (-0.000031 -0.008413  0.023925)
 25:    781.83   0.001595    8.06  0.000637  ( 0.000077  0.023766  0.008476)
 26:    782.77   0.000011    0.06  0.000005  (-0.000009 -0.002120  0.000230)
 27:    879.09   0.000057    0.29  0.000020  (-0.004497  0.000021 -0.000009)
 28:   1073.19   0.000603    3.05  0.000175  ( 0.000152  0.013218  0.000680)
 29:   1073.39   0.000596    3.01  0.000173  ( 0.000051 -0.000686  0.013149)
 30:   1088.98   0.000777    3.93  0.000223  ( 0.014925 -0.000128 -0.000032)
 31:   1110.65   0.000000    0.00  0.000000  ( 0.000013  0.000031  0.000009)
 32:   1283.96   0.000000    0.00  0.000000  (-0.000082 -0.000180  0.000254)
 33:   1284.26   0.000000    0.00  0.000000  (-0.000044 -0.000261 -0.000172)
 34:   1320.36   0.000463    2.34  0.000109  ( 0.010456 -0.000033  0.000004)
 35:   1325.78   0.000000    0.00  0.000000  (-0.000186 -0.000003  0.000029)

* The epsilon (eps) is given for a Dirac delta lineshape.
** The dipole moment derivative (T) already includes vibrational overlap.

The first frequency considered to be a vibration is 6
The total number of vibrations considered is 30


--------------------------
THERMOCHEMISTRY AT 298.15K
--------------------------

Temperature         ...   298.15 K
Pressure            ...     1.00 atm
Total Mass          ...   129.72 AMU
Quasi RRHO          ...     True
Cut-Off Frequency   ...     1.00 cm^-1

Throughout the following assumptions are being made:
  (1) The electronic state is orbitally nondegenerate
  (2) There are no thermally accessible electronically excited states
  (3) Hindered rotations indicated by low frequency modes are not
      treated as such but are treated as vibrations and this may
      cause some error
  (4) All equations used are the standard statistical mechanics
      equations for an ideal gas
  (5) All vibrations are strictly harmonic

freq.     313.78  E(vib)   ...       0.25 
freq.     313.89  E(vib)   ...       0.25 
freq.     336.42  E(vib)   ...       0.24 
freq.     352.17  E(vib)   ...       0.23 
freq.     406.97  E(vib)   ...       0.19 
freq.     407.39  E(vib)   ...       0.19 
freq.     407.54  E(vib)   ...       0.19 
freq.     410.72  E(vib)   ...       0.19 
freq.     417.64  E(vib)   ...       0.18 
freq.     510.93  E(vib)   ...       0.14 
freq.     511.12  E(vib)   ...       0.14 
freq.     526.77  E(vib)   ...       0.13 
freq.     617.93  E(vib)   ...       0.09 
freq.     638.41  E(vib)   ...       0.09 
freq.     642.60  E(vib)   ...       0.09 
freq.     676.35  E(vib)   ...       0.08 
freq.     676.66  E(vib)   ...       0.08 
freq.     690.25  E(vib)   ...       0.07 
freq.     781.43  E(vib)   ...       0.05 
freq.     781.83  E(vib)   ...       0.05 
freq.     782.77  E(vib)   ...       0.05 
freq.     879.09  E(vib)   ...       0.04 
freq.    1073.19  E(vib)   ...       0.02 
freq.    1073.39  E(vib)   ...       0.02 
freq.    1088.98  E(vib)   ...       0.02 
freq.    1110.65  E(vib)   ...       0.02 
freq.    1283.96  E(vib)   ...       0.01 
freq.    1284.26  E(vib)   ...       0.01 
freq.    1320.36  E(vib)   ...       0.01 
freq.    1325.78  E(vib)   ...       0.01 

------------
INNER ENERGY
------------

The inner energy is: U= E(el) + E(ZPE) + E(vib) + E(rot) + E(trans)
    E(el)   - is the total energy from the electronic structure calculation
              = E(kin-el) + E(nuc-el) + E(el-el) + E(nuc-nuc)
    E(ZPE)  - the the zero temperature vibrational energy from the frequency calculation
    E(vib)  - the the finite temperature correction to E(ZPE) due to population
              of excited vibrational states
    E(rot)  - is the rotational thermal energy
    E(trans)- is the translational thermal energy

Summary of contributions to the inner energy U:
Electronic energy                ...   -297.79440868 Eh
Zero point energy                ...      0.04930687 Eh      30.94 kcal/mol
Thermal vibrational correction   ...      0.00492710 Eh       3.09 kcal/mol
Thermal rotational correction    ...      0.00141627 Eh       0.89 kcal/mol
Thermal translational correction ...      0.00141627 Eh       0.89 kcal/mol
-----------------------------------------------------------------------
Total thermal energy                   -297.73734216 Eh


Summary of corrections to the electronic energy:
(perhaps to be used in another calculation)
Total thermal correction                  0.00775965 Eh       4.87 kcal/mol
Non-thermal (ZPE) correction              0.04930687 Eh      30.94 kcal/mol
-----------------------------------------------------------------------
Total correction                          0.05706652 Eh      35.81 kcal/mol


--------
ENTHALPY
--------

The enthalpy is H = U + kB*T
                kB is Boltzmann's constant
Total thermal energy              ...   -297.73734216 Eh 
Thermal Enthalpy correction       ...      0.00094421 Eh       0.59 kcal/mol
-----------------------------------------------------------------------
Total Enthalpy                    ...   -297.73639795 Eh


Note: Only C1 symmetry has been detected, increase convergence thresholds 
      if your molecule has a higher symmetry. Symmetry factor of 1.0 is   
      used for the rotational entropy correction. 
 

Note: Rotational entropy computed according to Herzberg 
Infrared and Raman Spectra, Chapter V,1, Van Nostrand Reinhold, 1945 
Point Group:  C1, Symmetry Number:   1  
Rotational constants in cm-1:     0.090893     0.054457     0.054453 

Vibrational entropy computed according to the QRRHO of S. Grimme
Chem.Eur.J. 2012 18 9955 using a reference frequency of 100.0 cm-1


-------
ENTROPY
-------

The entropy contributions are T*S = T*(S(el)+S(vib)+S(rot)+S(trans))
     S(el)   - electronic entropy
     S(vib)  - vibrational entropy
     S(rot)  - rotational entropy
     S(trans)- translational entropy
The entropies will be listed as multiplied by the temperature to get
units of energy

Electronic entropy                ...      0.00000000 Eh      0.00 kcal/mol
Vibrational entropy               ...      0.00710663 Eh      4.46 kcal/mol
Rotational entropy                ...      0.01339084 Eh      8.40 kcal/mol
Translational entropy             ...      0.01923977 Eh     12.07 kcal/mol
-----------------------------------------------------------------------
Final entropy term                ...      0.03973723 Eh     24.94 kcal/mol

In case the symmetry of your molecule has not been determined correctly
or in case you have a reason to use a different symmetry number we print 
out the resulting rotational entropy values for sn=1,12:

 non-linear molecules -----------------------------------
|  sn= 1 | S(rot)=       0.01339084 Eh      8.40 kcal/mol|
|  sn= 2 | S(rot)=       0.01273638 Eh      7.99 kcal/mol|
|  sn= 3 | S(rot)=       0.01235355 Eh      7.75 kcal/mol|
|  sn= 4 | S(rot)=       0.01208193 Eh      7.58 kcal/mol|
|  sn= 5 | S(rot)=       0.01187124 Eh      7.45 kcal/mol|
|  sn= 6 | S(rot)=       0.01169909 Eh      7.34 kcal/mol|
|  sn= 7 | S(rot)=       0.01155355 Eh      7.25 kcal/mol|
|  sn= 8 | S(rot)=       0.01142747 Eh      7.17 kcal/mol|
|  sn= 9 | S(rot)=       0.01131626 Eh      7.10 kcal/mol|
|  sn=10 | S(rot)=       0.01121678 Eh      7.04 kcal/mol|
|  sn=11 | S(rot)=       0.01112679 Eh      6.98 kcal/mol|
|  sn=12 | S(rot)=       0.01104464 Eh      6.93 kcal/mol|
 linear molecules ---------------------------------------
|  Dinfh | S(rot)=       0.00807377 Eh      5.07 kcal/mol|
|  Cinfv | S(rot)=       0.00872822 Eh      5.48 kcal/mol|
 --------------------------------------------------------


-------------------
GIBBS FREE ENERGY
-------------------

The Gibbs free energy is G = H - T*S

Total enthalpy                    ...   -297.73639795 Eh 
Total entropy correction          ...     -0.03973723 Eh    -24.94 kcal/mol
-----------------------------------------------------------------------
Final Gibbs free energy         ...   -297.77613518 Eh

For completeness - the Gibbs free energy minus the electronic energy
G-E(el)                           ...      0.01827350 Eh     11.47 kcal/mol


Maximum memory used throughout the entire PROP-calculation: 36.7 MB
Converting b12_hexagonal_prism_m1_freq.gbw to JSON (see b12_hexagonal_prism_m1_freq.2jsonout) ... done

--------------------------------
SUGGESTED CITATIONS FOR THIS RUN
--------------------------------

Below you find a list of papers that are relevant to this ORCA run
We neither can nor want to force you to cite these papers, but we appreciate if you do
You receive ORCA, which is the product of decades of hard work by many enthusiastic individuals, for free
The only thing we kindly ask in return is that you cite our papers,
We deeply appreciate it, if you show your appreciation for ORCA by not just citing the generic ORCA reference.

Please note that relegating all ORCA citations to the supporting information does *not* help us.
SI sections are not indexed - citations you put there will not count into any citation statistics
But we need these citations in order to attract the funding resources that allow us to do what we are doing

Therefore, if you are a happy ORCA user, please consider citing a few of the papers listed below in the main body of your paper

In addition to the list printed below, the program has created the file b12_hexagonal_prism_m1_freq.bibtex that contains the list in bibtex format
You can import this file easily into all common literature databanks and citation aid programs

It goes without saying that in many instances, there are alternative algorithms to achieve similar
results as the ones you have gotten from ORCA. It is, of course, also the case that in some instances
ORCA just re-implements algorithms worked out by others. We are fully aware of that and we are also
fully appreciative of our colleagues work. Hence this citation list should not be read as indicating
that the listed papers, which are focused on our own work, are the only ones worth citing. It simply
meant to make it easier for users to cite ORCA specific papers. It is not a substitute for doing your
own literature research and citing the relevant literature in a scientifically appropriate manner.

List of essential papers. We consider these as the minimum necessary citations

  1. Grimme, S.; Hansen, A.; Ehlert, S.; Mewes, J.
     r2SCAN-3c: A 'Swiss army knife' composite electronic-structure method
     J. Chem. Phys. 2021 154 , 064103
     doi.org/10.1063/5.0040021
  2. Neese, F.
     Software update: the ORCA program system, version 6.0
     WIRES Comput. Molec. Sci. 2025 15(1), e70019
     doi.org/10.1002/wcms.70019

List of papers to cite with high priority. The work reported in these papers was absolutely
necessary for this run to complete.
Our perspective: the developers of density functionals and basis sets usually get cited in chemistry papers
Good! But without the algorithms to do something with them, the functionals or basis sets would not do anything.
Hence, in our opinion, the algorithm design and method developments papers are equally worthy of getting cited

  1. Neese, F.
     An improvement of the resolution of the identity approximation for the formation of the Coulomb matrix
     J. Comp. Chem. 2003 24(14), 1740-1747
     doi.org/10.1002/jcc.10318
  2. Bykov, D.; Petrenko, T.; Izsak, R.; Kossmann, S.; Becker, U.; Valeev, E.; Neese, F.
     Efficient implementation of the analytic second derivatives of Hartree-Fock and hybrid DFT energies: a detailed analysis of different approximations
     Molec. Phys. 2015 113 , 1961-1977
     doi.org/10.1080/00268976.2015.1025114
  3. Caldeweyher, E.; Bannwarth, C.; Grimme, S.
     Extension of the D3 dispersion coefficient model
     J. Chem. Phys. 2017 147 , 034112
     doi.org/10.1063/1.4993215
  4. Lehtola, S.; Steigemann, C.; Oliveira, M.; Marques, M.
     Recent developments in Libxc - A comprehensive library of functionals for density functional theory
     Software X 2018 7 , 
     doi.org/10.1016/j.softx.2017.11.002
  5. Caldeweyher, E.; Ehlert, S.; Hansen, A.; Neugebauer, H.; Spicher, S.; Bannwarth, C.; Grimme, S.
     A generally applicable atomic-charge dependent London dispersion correction
     J. Chem. Phys. 2019 150 , 154122
     doi.org/10.1063/1.5090222
  6. Neese, F.
     The SHARK Integral Generation and Digestion System
     J. Comp. Chem. 2022 44(3), 381
     doi.org/10.1002/jcc.26942

List of suggested additional citations. These are papers that are important in the 'surrounding' of 
of this run, or papers that preceded the highly important papers. If you like your results we are grateful for a citation.

  1. Neese, F.
     The ORCA program system
     WIRES Comput. Molec. Sci. 2012 2(1), 73-78
     doi.org/10.1002/wcms.81
  2. Neese, F.
     Software update: the ORCA program system, version 4.0
     WIRES Comput. Molec. Sci. 2018 8(1), 1-6
     doi.org/10.1002/wcms.1327
  3. Neese, F.; Wennmohs, F.; Becker, U.; Riplinger, C.
     The ORCA quantum chemistry program package
     J. Chem. Phys. 2020 152(22), 224108
     doi.org/10.1063/5.0004608
  4. Neese, F.
     Software update: The ORCA program system—Version 5.0
     WIRES Comput. Molec. Sci. 2022 12(1), e1606
     doi.org/10.1002/wcms.1606

List of optional additional citations

  1. Neese, F.
     Approximate second-order SCF convergence for spin unrestricted wavefunctions
     Chem. Phys. Lett. 2000 325(1-3), 93-98
     doi.org/10.1016/s0009-2614(00)00662-x

Timings for individual modules:

Sum of individual times          ...       88.739 sec (=   1.479 min)
Startup calculation              ...        0.598 sec (=   0.010 min)   0.7 %
SCF iterations                   ...        7.339 sec (=   0.122 min)   8.3 %
Property integrals               ...       38.022 sec (=   0.634 min)  42.8 %
SCF Response                     ...       31.482 sec (=   0.525 min)  35.5 %
Property calculations            ...       11.298 sec (=   0.188 min)  12.7 %
                             ****ORCA TERMINATED NORMALLY****
TOTAL RUN TIME: 0 days 0 hours 1 minutes 29 seconds 296 msec
