
                                 *****************
                                 * O   R   C   A *
                                 *****************

                                            #,                                       
                                            ###                                      
                                            ####                                     
                                            #####                                    
                                            ######                                   
                                           ########,                                 
                                     ,,################,,,,,                         
                               ,,#################################,,                 
                          ,,##########################################,,             
                       ,#########################################, ''#####,          
                    ,#############################################,,   '####,        
                  ,##################################################,,,,####,       
                ,###########''''           ''''###############################       
              ,#####''   ,,,,##########,,,,          '''####'''          '####       
            ,##' ,,,,###########################,,,                        '##       
           ' ,,###''''                  '''############,,,                           
         ,,##''                                '''############,,,,        ,,,,,,###''
      ,#''                                            '''#######################'''  
     '                                                          ''''####''''         
             ,#######,   #######,   ,#######,      ##                                
            ,#'     '#,  ##    ##  ,#'     '#,    #''#        ,####,    ,#,          
            ##       ##  ##   ,#'  ##            #'  '#       #'       ,# #          
            ##       ##  #######   ##           ,######,      #####,      #          
            '#,     ,#'  ##    ##  '#,     ,#' ,#      #,     #,   #      #          
             '#######'   ##     ##  '#######'  #'      '#     '####' #    #          



                #########################################################
                #                        -***-                          #
                #          Department of theory and spectroscopy        #
                #                                                       #
                #                      Frank Neese                      #
                #                                                       #
                #     Directorship, Architecture, Infrastructure        #
                #                    SHARK, DRIVERS                     #
                #        Core code/Algorithms in most modules           #
                #                                                       #
                #        Max Planck Institute fuer Kohlenforschung      #
                #                Kaiser Wilhelm Platz 1                 #
                #                 D-45470 Muelheim/Ruhr                 #
                #                      Germany                          #
                #                                                       #
                #                  All rights reserved                  #
                #                        -***-                          #
                #########################################################


                         Program Version 6.1.1  -  RELEASE   -


 With contributions from (in alphabetic order):
[Max-Planck-Institut fuer Kohlenforschung]                               
  Daniel Aravena         : Magnetic Suceptibility                        
  Michael Atanasov       : Ab Initio Ligand Field Theory (pilot matlab implementation)
  Alexander A. Auer      : GIAO ZORA, VPT2 properties, NMR spectrum      
  Ute Becker             : All parallelization in ORCA, NUMFREQ, NUMCALC 
  Giovanni Bistoni       : ED, misc. LED, open-shell LED, HFLD           
  Dmytro Bykov           : pre 5.0 version of the SCF Hessian            
  Marcos Casanova-Páez   : Triplet and SCS-CIS(D). UHF-(DLPNO)-IP/EA/STEOM-CCSD. UHF-CVS-IP/STEOM-CCSD   
  Vijay G. Chilkuri      : MRCI spin determinant printing, contributions to CSF-ICE 
  Pauline Colinet        : FMM embedding                                 
  Dipayan Datta          : RHF DLPNO-CCSD density                        
  Achintya Kumar Dutta   : EOM-CC, STEOM-CC                              
  Nicolas Foglia         : Exact transition moments, OPA infrastructure, MCD improvements    
  Dmitry Ganyushin       : Spin-Orbit,Spin-Spin,Magnetic field MRCI      
  Miquel Garcia-Rates    : C-PCM and meta-GGA Hessian, CCSD/C-PCM, Gaussian charge scheme 
  Tiago L. C. Gouveia    : GS-ROHF, GS-ROCIS                             
  Yang Guo               : DLPNO-NEVPT2, F12-NEVPT2, CIM, IAO-localization        
  Andreas Hansen         : Spin unrestricted coupled pair/coupled cluster methods 
  Ingolf Harden          : AUTO-CI MPn and infrastructure                
  Benjamin Helmich-Paris : MC-RPA, TRAH-(SCF,CASSCF), AVAS, COSX integrals, SCF dyn. polar., MC-PDFT, srDFT 
  Lee Huntington         : MR-EOM, pCC                                   
  Robert Izsak           : Overlap fitted RIJCOSX, COSX-SCS-MP3, EOM     
  Riya Kayal             : Wick's Theorem for AUTO-CI, AUTO-CI UHF-CCSDT 
  Emily Kempfer          : AUTO-CI RHF CISDT and CCSDT, approximate NEVPT4
  Christian Kollmar      : KDIIS, OOCD, Brueckner-CCSD(T), CCSD density, CASPT2, CASPT2-K, improved NEVPT2 
  Axel Koslowski         : Symmetry handling                             
  Simone Kossmann        : meta-GGA functionals, TD-DFT gradient, OOMP2, (MP2 Hessian; deprecated post 5.0) 
  Lucas Lang             : DCDCAS, Hyperfine gauge corrections, ICE-SOC+SSC
  Marvin Lechner         : AUTO-CI (C++ implementation), FIC-MRCC        
  Spencer Leger          : CASSCF response                               
  Dagmar Lenk            : GEPOL surface, SMD, ORCA-2-JSON               
  Dimitrios Liakos       : Extrapolation schemes; Compound Job, Property file
  Dimitrios Manganas     : Further ROCIS development; embedding schemes. LFT, Crystal Embedding 
  Dimitrios Pantazis     : SARC Basis sets                               
  Anastasios Papadopoulos: AUTO-CI, single reference methods and gradients 
  Taras Petrenko         : pre 6.0 DFT Hessian and TD-DFT gradient,  ECA, NRVS 
  Petra Pikulova         : Analytic Raman intensities                    
  Peter Pinski           : DLPNO-MP2, DLPNO-MP2 Gradient                 
  Shashank Vittal Rao    : ES-AILFT, MagRelax                            
  Christoph Reimann      : Effective Core Potentials                     
  Marius Retegan         : Local ZFS, SOC                                
  Christoph Riplinger    : Optimizer, TS searches, QM/MM, DLPNO-CCSD(T), (RO)-DLPNO pert. Triples 
  Michael Roemelt        : Original ROCIS implementation, recursive CI coupling coefficients
  Masaaki Saitow         : Open-shell DLPNO-CCSD energy and density      
  Barbara Sandhoefer     : DKH picture change effects                    
  Yorick L. A. Schmerwitz: GMF and freeze-and-release deltaSCF, NEB S-IDPP initial path                    
  Kantharuban Sivalingam : CASSCF convergence/infrastructure, NEVPT2, NEVPT3, NEVPT4(SD), FIC-MRCI and CEPA variants
  Bernardo de Souza      : ESD, SOC TD-DFT                               
  Georgi L. Stoychev     : AutoAux, RI-MP2 NMR, DLPNO-MP2 response, X2C  
  Van Anh Tran           : RI-MP2 g-tensors                              
  Willem Van den Heuvel  : Paramagnetic NMR                              
  Zikuan Wang            : NOTCH, Electric field optimization            
  Frank Wennmohs         : Technical directorship and infrastructure     
  Hang Xu                : AUTO-CI-Response properties                   
                                                                         
[FACCTs GmbH]                                                            
  Markus Bursch, Nicolas Foglia, Miquel Garcia-Rates, Ingolf Harden, Hagen Neugebauer, Anastasios Papadopoulos, 
  Christoph Riplinger, Bernardo de Souza, Georgi L. Stoychev                                                    
                                                                 
  APM, various basis sets, CI-OPT, improved COSX, DLPNO-Multilevel,           
  DOCKER, DRACO, updates on ESD, Fragmentator, GOAT, IRC, LR-CPCM, L-BFGS, MBIS, meta-GGA TD-DFT gradient, ML-optimized integration grids, 
  MM, NACMEs, nearIR, NEB, NEB-TS, NL-DFT gradient (VV10), 2- and 3-layer-ONIOM, interface openCOSMO-RS, QMMM,   
  Crystal-QMMM, RESP, rigid body optimization, SF, symmetry and pop. for TD-DFT, various functionals, SOLVATOR                                   
                                                                         
[Other institutions]                                                     
  V. Asgeirsson          : NEB                                           
  Christoph Bannwarth    : sTDA-DFT, sTD-DFT, PBEh-3c, B97-3c, D3        
  Giovanni Bistoni       : ETS/NOCV, ADLD/ADEX, COVALED                  
  Martin Brehm           : Molecular dynamics                            
  Ronald Cardenas        : ETS/NOCV                                      
  Martina Colucci        : COVALED                                       
  Sebastian Ehlert       : rSCAN, r2SCAN, r2SCAN-3c, D4, dhf basis sets  
  Marvin Friede          : D4 for Fr, Ra, Ac-Lr                          
  Lars Goerigk           : TD-DFT with DH, B97 family of functionals     
  Stefan Grimme          : VdW corrections, initial TS optimization, DFT functionals, gCP, sTDA/sTD-DF 
  Waldemar Hujo          : DFT-NL                                        
  H. Jonsson             : NEB                                           
  Holger Kruse           : gCP                                           
  Marcel Mueller         : wB97X-3c, vDZP basis set                      
  Hagen Neugebauer       : wr2SCAN, Native XTB                           
  Gianluca Regni         : ADLD/ADEX                                     
  Tobias Risthaus        : pre 6.0 range-separated hybrid DFT and stability analysis
  Lukas Wittmann         : regularized MP2, r2SCAN double-hybrids, wr2SCAN        
                                                                         
We gratefully acknowledge several colleagues who have allowed us to      
interface, adapt or use parts of their codes:                            
  Ed Valeev, F. Pavosevic, A. Kumar             : LibInt (2-el integral package), F12 methods 
  Garnet Chan, S. Sharma, J. Yang, R. Olivares  : DMRG                   
  Ulf Ekstrom                                   : XCFun DFT Library      
  Mihaly Kallay                                 : mrcc  (arbitrary order and MRCC methods)
  Frank Weinhold                                : gennbo (NPA and NBO analysis)           
  Simon Mueller                                 : openCOSMO-RS                            
  Christopher J. Cramer and Donald G. Truhlar   : smd solvation model                     
  S Lehtola, MJT Oliveira, MAL Marques          : LibXC Library                           
  Liviu Ungur et al                             : ANISO software                          


 Your calculation uses the libint2 library for the computation of 2-el integrals
 For citations please refer to: http://libint.valeyev.net

 Your ORCA version has been built with support for libXC version: 7.0.0
 For citations please refer to: https://libxc.gitlab.io

 This ORCA versions uses:
   CBLAS   interface :  Fast vector & matrix operations
   LAPACKE interface :  Fast linear algebra routines
   Shared memory     :  Shared parallel matrices


  ***********************************
  * Starting time: Mon Mar 30 17:34:42 2026
  * Host name:     DESKTOP-E59RH2R
  * Process ID:    75512
  * Working dir.:  C:\Users\gnome\Desktop\Vitya_Diplom\Vitya_DiplomB12\02_screening_r2scan3c\b12_hexagonal_prism\mult_5
  ***********************************

NOTE: MaxCore=1500 MB was set to SCF,MP2,MDCI,CIPSI,MRCI,RASCI and CIS
      => If you want to overwrite this, your respective input block should be placed after the MaxCore statement
Your calculation utilizes the geometrical counterpoise correction gCP
Please cite in your paper:
H.Kruse, S. Grimme J.Chem.Phys., 136, (2012), 154101 
   

Your calculation utilizes the atom-pairwise dispersion correction
based on EEQ partial charges (D4)


================================================================================

----- Orbital basis set information -----
Your calculation utilizes the basis: def2-mTZVPP
   Stefan Grimme, Andreas Hansen, Sebastian Ehlert, and Jan-Michael Mewes 
   J. Chem. Phys. 154, 064103 (2021). DOI: 10.1063/5.0040021

----- AuxJ basis set information -----
Your calculation utilizes the basis: def2-mTZVPP/J
   Stefan Grimme, Andreas Hansen, Sebastian Ehlert, and Jan-Michael Mewes 
   J. Chem. Phys. 154, 000000 (2021). DOI: 10.1063/5.0040021

================================================================================
                                        WARNINGS
                       Please study these warnings very carefully!
================================================================================

WARNING: Old DensityContainer found on disk!
         Will remove this file - 
         If you want to keep old densities, please start your calculation with a different basename. 



WARNING: SCAN, rSCAN, or r2SCAN functional requested.
  ===> : libXC variant has now been activated.



WARNING: your system is open-shell and RHF/RKS was chosen
  ===> : WILL SWITCH to UHF/UKS


WARNING: Geometry Optimization
  ===> : Switching off AutoStart
         For restart on a previous wavefunction, please use MOREAD

================================================================================
                                       INPUT FILE
================================================================================
NAME = b12_hexagonal_prism_m5_screen.inp
|  1> !r2scan-3c
|  2> !opt
|  3> !tightscf
|  4> 
|  5> %output
|  6>     jsonpropfile true
|  7>     jsongbwfile true
|  8> end
|  9> 
| 10> %maxcore 1500
| 11> %pal
| 12>   nprocs 8
| 13> end
| 14> 
| 15> * xyz 0 5
| 16> B             1.3999999999999999             0.0000000000000000             1.1000000000000001
| 17> B             0.7000000000000000             1.2124360000000001             1.1000000000000001
| 18> B            -0.7000000000000000             1.2124360000000001             1.1000000000000001
| 19> B            -1.3999999999999999             0.0000000000000000             1.1000000000000001
| 20> B            -0.7000000000000000            -1.2124360000000001             1.1000000000000001
| 21> B             0.7000000000000000            -1.2124360000000001             1.1000000000000001
| 22> B             1.3999999999999999             0.0000000000000000            -1.1000000000000001
| 23> B             0.7000000000000000             1.2124360000000001            -1.1000000000000001
| 24> B            -0.7000000000000000             1.2124360000000001            -1.1000000000000001
| 25> B            -1.3999999999999999             0.0000000000000000            -1.1000000000000001
| 26> B            -0.7000000000000000            -1.2124360000000001            -1.1000000000000001
| 27> B             0.7000000000000000            -1.2124360000000001            -1.1000000000000001
| 28> *
| 29> 
| 30>                          ****END OF INPUT****
================================================================================

                       *****************************
                       * Geometry Optimization Run *
                       *****************************

Geometry optimization settings:
Update method            Update   .... BFGS
Choice of coordinates    CoordSys .... (2022) Redundant Internals
Initial Hessian          InHess   .... Almloef's Model
Max. no of cycles        MaxIter  .... 50

Convergence Tolerances:
Energy Change            TolE     ....  5.0000e-06 Eh
Max. Gradient            TolMAXG  ....  3.0000e-04 Eh/bohr
RMS Gradient             TolRMSG  ....  1.0000e-04 Eh/bohr
Max. Displacement        TolMAXD  ....  4.0000e-03 bohr
RMS Displacement         TolRMSD  ....  2.0000e-03 bohr
Strict Convergence                .... False

------------------------------------------------------------------------------
                        ORCA OPTIMIZATION COORDINATE SETUP
------------------------------------------------------------------------------

The optimization will be done in redundant internal coordinates (2022)
Making redundant internal coordinates   ...  (2022 redundants) done
Evaluating the initial hessian          ...  (Almloef) done
Evaluating the coordinates              ...  done
Calculating the B-matrix                .... done
Calculating the G-matrix                .... done
The number of degrees of freedom        ....  390

    -----------------------------------------------------------------
                    Redundant Internal Coordinates


    -----------------------------------------------------------------
         Definition                    Initial Value    Approx d2E/dq
    -----------------------------------------------------------------
      1. B(B   1,B   0)                  1.4000         0.808013   
      2. B(B   2,B   1)                  1.4000         0.808014   
      3. B(B   3,B   2)                  1.4000         0.808013   
      4. B(B   4,B   3)                  1.4000         0.808013   
      5. B(B   5,B   4)                  1.4000         0.808014   
      6. B(B   5,B   0)                  1.4000         0.808013   
      7. B(B   6,B   0)                  2.2000         0.042763   
      8. B(B   6,B   1)                  2.6077         0.010000   
      9. B(B   6,B   5)                  2.6077         0.010000   
     10. B(B   7,B   6)                  1.4000         0.808013   
     11. B(B   7,B   1)                  2.2000         0.042763   
     12. B(B   7,B   2)                  2.6077         0.010000   
     13. B(B   7,B   0)                  2.6077         0.010000   
     14. B(B   8,B   3)                  2.6077         0.010000   
     15. B(B   8,B   1)                  2.6077         0.010000   
     16. B(B   8,B   7)                  1.4000         0.808014   
     17. B(B   8,B   2)                  2.2000         0.042763   
     18. B(B   9,B   3)                  2.2000         0.042763   
     19. B(B   9,B   2)                  2.6077         0.010000   
     20. B(B   9,B   4)                  2.6077         0.010000   
     21. B(B   9,B   8)                  1.4000         0.808013   
     22. B(B  10,B   3)                  2.6077         0.010000   
     23. B(B  10,B   5)                  2.6077         0.010000   
     24. B(B  10,B   9)                  1.4000         0.808013   
     25. B(B  10,B   4)                  2.2000         0.042763   
     26. B(B  11,B   0)                  2.6077         0.010000   
     27. B(B  11,B  10)                  1.4000         0.808014   
     28. B(B  11,B   4)                  2.6077         0.010000   
     29. B(B  11,B   6)                  1.4000         0.808013   
     30. B(B  11,B   5)                  2.2000         0.042763   
     31. A(B   1,B   0,B  11)          105.5713         0.237712   
     32. A(B   6,B   0,B   7)           32.4712         0.165464   
     33. A(B   5,B   0,B   7)          105.5713         0.237712   
     34. A(B   1,B   0,B   5)          120.0000         0.494926   
     35. A(B   5,B   0,B  11)           57.5288         0.237712   
     36. A(B   7,B   0,B  11)           55.4137         0.143481   
     37. A(B   5,B   0,B   6)           90.0000         0.297719   
     38. A(B   1,B   0,B   6)           90.0000         0.297719   
     39. A(B   6,B   0,B  11)           32.4712         0.165464   
     40. A(B   1,B   0,B   7)           57.5288         0.237712   
     41. A(B   0,B   1,B   7)           90.0000         0.297719   
     42. A(B   7,B   1,B   8)           32.4712         0.165464   
     43. A(B   6,B   1,B   8)           55.4137         0.143481   
     44. A(B   2,B   1,B   8)           57.5288         0.237712   
     45. A(B   0,B   1,B   2)          120.0000         0.494926   
     46. A(B   0,B   1,B   8)          105.5713         0.237712   
     47. A(B   6,B   1,B   7)           32.4712         0.165464   
     48. A(B   2,B   1,B   6)          105.5713         0.237712   
     49. A(B   2,B   1,B   7)           90.0000         0.297719   
     50. A(B   0,B   1,B   6)           57.5288         0.237712   
     51. A(B   3,B   2,B   8)           90.0000         0.297719   
     52. A(B   1,B   2,B   9)          105.5713         0.237712   
     53. A(B   1,B   2,B   8)           90.0000         0.297719   
     54. A(B   3,B   2,B   9)           57.5288         0.237712   
     55. A(B   7,B   2,B   8)           32.4712         0.165464   
     56. A(B   3,B   2,B   7)          105.5713         0.237712   
     57. A(B   1,B   2,B   3)          120.0000         0.494926   
     58. A(B   7,B   2,B   9)           55.4137         0.143481   
     59. A(B   1,B   2,B   7)           57.5288         0.237712   
     60. A(B   8,B   2,B   9)           32.4712         0.165464   
     61. A(B   4,B   3,B   8)          105.5713         0.237712   
     62. A(B   4,B   3,B  10)           57.5288         0.237712   
     63. A(B   2,B   3,B   4)          120.0000         0.494926   
     64. A(B   4,B   3,B   9)           90.0000         0.297719   
     65. A(B   8,B   3,B  10)           55.4137         0.143481   
     66. A(B   8,B   3,B   9)           32.4712         0.165464   
     67. A(B   2,B   3,B   9)           90.0000         0.297719   
     68. A(B   2,B   3,B   8)           57.5288         0.237712   
     69. A(B   9,B   3,B  10)           32.4712         0.165464   
     70. A(B   2,B   3,B  10)          105.5713         0.237712   
     71. A(B   5,B   4,B   9)          105.5713         0.237712   
     72. A(B   3,B   4,B   9)           57.5288         0.237712   
     73. A(B   5,B   4,B  10)           90.0000         0.297719   
     74. A(B   5,B   4,B  11)           57.5288         0.237712   
     75. A(B   3,B   4,B   5)          120.0000         0.494926   
     76. A(B  10,B   4,B  11)           32.4712         0.165464   
     77. A(B   3,B   4,B  11)          105.5713         0.237712   
     78. A(B   3,B   4,B  10)           90.0000         0.297719   
     79. A(B   9,B   4,B  11)           55.4137         0.143481   
     80. A(B   9,B   4,B  10)           32.4712         0.165464   
     81. A(B   6,B   5,B  11)           32.4712         0.165464   
     82. A(B   6,B   5,B  10)           55.4137         0.143481   
     83. A(B   0,B   5,B   6)           57.5288         0.237712   
     84. A(B   0,B   5,B  10)          105.5713         0.237712   
     85. A(B   4,B   5,B   6)          105.5713         0.237712   
     86. A(B   0,B   5,B   4)          120.0000         0.494926   
     87. A(B   4,B   5,B  11)           90.0000         0.297719   
     88. A(B   0,B   5,B  11)           90.0000         0.297719   
     89. A(B  10,B   5,B  11)           32.4712         0.165464   
     90. A(B   4,B   5,B  10)           57.5288         0.237712   
     91. A(B   1,B   6,B   5)           55.4137         0.143481   
     92. A(B   0,B   6,B   1)           32.4712         0.165464   
     93. A(B   1,B   6,B  11)          105.5713         0.237712   
     94. A(B   1,B   6,B   7)           57.5288         0.237712   
     95. A(B   0,B   6,B   5)           32.4712         0.165464   
     96. A(B   5,B   6,B  11)           57.5288         0.237712   
     97. A(B   5,B   6,B   7)          105.5713         0.237712   
     98. A(B   0,B   6,B  11)           90.0000         0.297719   
     99. A(B   7,B   6,B  11)          120.0000         0.494926   
    100. A(B   0,B   6,B   7)           90.0000         0.297719   
    101. A(B   1,B   7,B   6)           90.0000         0.297719   
    102. A(B   0,B   7,B   2)           55.4137         0.143481   
    103. A(B   0,B   7,B   8)          105.5713         0.237712   
    104. A(B   6,B   7,B   8)          120.0000         0.494926   
    105. A(B   0,B   7,B   6)           57.5288         0.237712   
    106. A(B   0,B   7,B   1)           32.4712         0.165464   
    107. A(B   1,B   7,B   2)           32.4712         0.165464   
    108. A(B   2,B   7,B   8)           57.5288         0.237712   
    109. A(B   2,B   7,B   6)          105.5713         0.237712   
    110. A(B   1,B   7,B   8)           90.0000         0.297719   
    111. A(B   2,B   8,B   9)           90.0000         0.297719   
    112. A(B   2,B   8,B   7)           90.0000         0.297719   
    113. A(B   1,B   8,B   2)           32.4712         0.165464   
    114. A(B   1,B   8,B   9)          105.5713         0.237712   
    115. A(B   1,B   8,B   7)           57.5288         0.237712   
    116. A(B   1,B   8,B   3)           55.4137         0.143481   
    117. A(B   2,B   8,B   3)           32.4712         0.165464   
    118. A(B   3,B   8,B   9)           57.5288         0.237712   
    119. A(B   3,B   8,B   7)          105.5713         0.237712   
    120. A(B   7,B   8,B   9)          120.0000         0.494926   
    121. A(B   4,B   9,B   8)          105.5713         0.237712   
    122. A(B   2,B   9,B   4)           55.4137         0.143481   
    123. A(B   3,B   9,B  10)           90.0000         0.297719   
    124. A(B   2,B   9,B   3)           32.4712         0.165464   
    125. A(B   2,B   9,B  10)          105.5713         0.237712   
    126. A(B   2,B   9,B   8)           57.5288         0.237712   
    127. A(B   3,B   9,B   8)           90.0000         0.297719   
    128. A(B   8,B   9,B  10)          120.0000         0.494926   
    129. A(B   3,B   9,B   4)           32.4712         0.165464   
    130. A(B   4,B   9,B  10)           57.5288         0.237712   
    131. A(B   4,B  10,B   9)           90.0000         0.297719   
    132. A(B   4,B  10,B   5)           32.4712         0.165464   
    133. A(B   5,B  10,B  11)           57.5288         0.237712   
    134. A(B   5,B  10,B   9)          105.5713         0.237712   
    135. A(B   9,B  10,B  11)          120.0000         0.494926   
    136. A(B   3,B  10,B   5)           55.4137         0.143481   
    137. A(B   3,B  10,B   4)           32.4712         0.165464   
    138. A(B   3,B  10,B  11)          105.5713         0.237712   
    139. A(B   3,B  10,B   9)           57.5288         0.237712   
    140. A(B   4,B  10,B  11)           90.0000         0.297719   
    141. A(B   4,B  11,B   5)           32.4712         0.165464   
    142. A(B   4,B  11,B  10)           57.5288         0.237712   
    143. A(B   4,B  11,B   6)          105.5713         0.237712   
    144. A(B   6,B  11,B  10)          120.0000         0.494926   
    145. A(B   0,B  11,B   4)           55.4137         0.143481   
    146. A(B   0,B  11,B   5)           32.4712         0.165464   
    147. A(B   0,B  11,B  10)          105.5713         0.237712   
    148. A(B   0,B  11,B   6)           57.5288         0.237712   
    149. A(B   5,B  11,B  10)           90.0000         0.297719   
    150. A(B   5,B  11,B   6)           90.0000         0.297719   
    151. D(B   2,B   1,B   0,B  11)     61.1405         0.041031   
    152. D(B   7,B   1,B   0,B   6)      0.0000         0.041031   
    153. D(B   7,B   1,B   0,B  11)    -28.8595         0.041031   
    154. D(B   2,B   1,B   0,B   7)     90.0000         0.041031   
    155. D(B   2,B   1,B   0,B   5)      0.0000         0.041031   
    156. D(B   8,B   1,B   0,B   5)    -61.1405         0.041031   
    157. D(B   2,B   1,B   0,B   6)     90.0000         0.041031   
    158. D(B   7,B   1,B   0,B   5)    -90.0000         0.041031   
    159. D(B   8,B   2,B   1,B   7)      0.0000         0.041031   
    160. D(B   7,B   2,B   1,B   0)    -90.0000         0.041031   
    161. D(B   8,B   2,B   1,B   0)    -90.0000         0.041031   
    162. D(B   3,B   2,B   1,B   8)     90.0000         0.041031   
    163. D(B   3,B   2,B   1,B   7)     90.0000         0.041031   
    164. D(B   8,B   2,B   1,B   6)    -28.8595         0.041031   
    165. D(B   3,B   2,B   1,B   6)     61.1405         0.041031   
    166. D(B   3,B   2,B   1,B   0)      0.0000         0.041031   
    167. D(B   4,B   3,B   2,B   9)     90.0000         0.041031   
    168. D(B   9,B   3,B   2,B   8)      0.0000         0.041031   
    169. D(B   4,B   3,B   2,B   7)     61.1405         0.041031   
    170. D(B   4,B   3,B   2,B   1)      0.0000         0.041031   
    171. D(B  10,B   3,B   2,B   1)    -61.1405         0.041031   
    172. D(B   4,B   3,B   2,B   8)     90.0000         0.041031   
    173. D(B   9,B   3,B   2,B   1)    -90.0000         0.041031   
    174. D(B   9,B   3,B   2,B   7)    -28.8595         0.041031   
    175. D(B  10,B   4,B   3,B   2)    -90.0000         0.041031   
    176. D(B   5,B   4,B   3,B   9)     90.0000         0.041031   
    177. D(B  10,B   4,B   3,B   8)    -28.8595         0.041031   
    178. D(B  10,B   4,B   3,B   9)      0.0000         0.041031   
    179. D(B   5,B   4,B   3,B   2)      0.0000         0.041031   
    180. D(B   5,B   4,B   3,B  10)     90.0000         0.041031   
    181. D(B   5,B   4,B   3,B   8)     61.1405         0.041031   
    182. D(B  11,B   4,B   3,B   2)    -61.1405         0.041031   
    183. D(B  11,B   5,B   0,B   7)     28.8595         0.041031   
    184. D(B   4,B   5,B   0,B  11)    -90.0000         0.041031   
    185. D(B  11,B   5,B   4,B   3)    -90.0000         0.041031   
    186. D(B   0,B   5,B   4,B   9)     61.1405         0.041031   
    187. D(B  10,B   5,B   4,B   3)    -90.0000         0.041031   
    188. D(B   4,B   5,B   0,B   7)    -61.1405         0.041031   
    189. D(B   0,B   5,B   4,B  10)     90.0000         0.041031   
    190. D(B  11,B   5,B   0,B   1)     90.0000         0.041031   
    191. D(B  11,B   5,B   4,B   9)    -28.8595         0.041031   
    192. D(B  11,B   5,B   4,B  10)      0.0000         0.041031   
    193. D(B  11,B   5,B   0,B   6)      0.0000         0.041031   
    194. D(B   0,B   5,B   4,B  11)     90.0000         0.041031   
    195. D(B  10,B   5,B   0,B   1)     61.1405         0.041031   
    196. D(B   0,B   5,B   4,B   3)      0.0000         0.041031   
    197. D(B   4,B   5,B   0,B   6)    -90.0000         0.041031   
    198. D(B   4,B   5,B   0,B   1)      0.0000         0.041031   
    199. D(B   5,B   6,B   0,B  11)      0.0000         0.010000   
    200. D(B  11,B   6,B   1,B   0)     64.0298         0.010000   
    201. D(B   7,B   6,B   1,B   0)    180.0000         0.010000   
    202. D(B  11,B   6,B   0,B   5)      0.0000         0.010000   
    203. D(B   7,B   6,B   0,B  11)    120.0000         0.010000   
    204. D(B   5,B   6,B   0,B   1)   -120.0000         0.010000   
    205. D(B  11,B   6,B   0,B   7)   -120.0000         0.010000   
    206. D(B  11,B   6,B   1,B   2)    -51.9403         0.010000   
    207. D(B  11,B   6,B   1,B   8)    -81.5848         0.010000   
    208. D(B  11,B   6,B   0,B   1)   -120.0000         0.010000   
    209. D(B  11,B   6,B   1,B   7)   -115.9702         0.010000   
    210. D(B   7,B   6,B   1,B   8)     34.3854         0.010000   
    211. D(B   7,B   6,B   0,B   5)    120.0000         0.010000   
    212. D(B   7,B   6,B   0,B   1)      0.0000         0.010000   
    213. D(B   0,B   6,B   5,B   4)    115.9702         0.010000   
    214. D(B   7,B   6,B   1,B   2)     64.0298         0.010000   
    215. D(B  11,B   6,B   5,B   4)    -64.0298         0.010000   
    216. D(B  11,B   6,B   5,B   0)    180.0000         0.010000   
    217. D(B   7,B   6,B   5,B  10)     81.5848         0.010000   
    218. D(B   7,B   6,B   5,B  11)    115.9702         0.010000   
    219. D(B   7,B   6,B   5,B   4)     51.9403         0.010000   
    220. D(B  11,B   6,B   5,B  10)    -34.3854         0.010000   
    221. D(B   7,B   6,B   5,B   0)    -64.0298         0.010000   
    222. D(B   0,B   6,B   1,B   2)   -115.9702         0.010000   
    223. D(B   2,B   7,B   6,B  11)     61.1405         0.041031   
    224. D(B   1,B   7,B   6,B   0)      0.0000         0.041031   
    225. D(B   1,B   7,B   6,B  11)     90.0000         0.041031   
    226. D(B   8,B   7,B   6,B   1)    -90.0000         0.041031   
    227. D(B   8,B   7,B   6,B  11)      0.0000         0.041031   
    228. D(B   1,B   7,B   2,B   3)   -115.9702         0.010000   
    229. D(B   6,B   7,B   2,B   8)   -115.9702         0.010000   
    230. D(B   8,B   7,B   2,B   1)    180.0000         0.010000   
    231. D(B   6,B   7,B   2,B   9)    -81.5848         0.010000   
    232. D(B   6,B   7,B   2,B   3)    -51.9403         0.010000   
    233. D(B   6,B   7,B   2,B   1)     64.0298         0.010000   
    234. D(B   2,B   7,B   1,B   8)      0.0000         0.010000   
    235. D(B   8,B   7,B   2,B   3)     64.0298         0.010000   
    236. D(B   2,B   7,B   1,B   0)    120.0000         0.010000   
    237. D(B   8,B   7,B   1,B   6)    120.0000         0.010000   
    238. D(B   8,B   7,B   6,B   5)    -61.1405         0.041031   
    239. D(B   8,B   7,B   1,B   2)      0.0000         0.010000   
    240. D(B   8,B   7,B   2,B   9)     34.3854         0.010000   
    241. D(B   8,B   7,B   1,B   0)    120.0000         0.010000   
    242. D(B   6,B   7,B   1,B   0)      0.0000         0.010000   
    243. D(B   1,B   7,B   0,B   5)    115.9702         0.010000   
    244. D(B   6,B   7,B   0,B  11)    -34.3853         0.010000   
    245. D(B   8,B   7,B   0,B   5)     51.9403         0.010000   
    246. D(B   8,B   7,B   0,B   1)    -64.0298         0.010000   
    247. D(B   8,B   7,B   0,B  11)     81.5848         0.010000   
    248. D(B   6,B   7,B   0,B   5)    -64.0298         0.010000   
    249. D(B   6,B   7,B   0,B   1)    180.0000         0.010000   
    250. D(B   8,B   7,B   6,B   0)    -90.0000         0.041031   
    251. D(B   8,B   7,B   0,B   6)    115.9702         0.010000   
    252. D(B   1,B   7,B   6,B   5)     28.8595         0.041031   
    253. D(B   6,B   7,B   1,B   8)   -120.0000         0.010000   
    254. D(B   6,B   7,B   1,B   2)   -120.0000         0.010000   
    255. D(B   9,B   8,B   3,B   4)     64.0298         0.010000   
    256. D(B   9,B   8,B   3,B   2)    180.0000         0.010000   
    257. D(B   7,B   8,B   3,B  10)    -81.5848         0.010000   
    258. D(B   7,B   8,B   3,B   4)    -51.9403         0.010000   
    259. D(B   7,B   8,B   3,B   2)     64.0298         0.010000   
    260. D(B   1,B   8,B   2,B   7)      0.0000         0.010000   
    261. D(B   9,B   8,B   2,B   1)    120.0000         0.010000   
    262. D(B   7,B   8,B   2,B   9)   -120.0000         0.010000   
    263. D(B   7,B   8,B   2,B   1)      0.0000         0.010000   
    264. D(B   2,B   8,B   1,B   0)    115.9702         0.010000   
    265. D(B   9,B   8,B   1,B   6)     81.5848         0.010000   
    266. D(B   9,B   8,B   1,B   7)    115.9702         0.010000   
    267. D(B   9,B   8,B   1,B   2)    -64.0298         0.010000   
    268. D(B   9,B   8,B   1,B   0)     51.9403         0.010000   
    269. D(B   7,B   8,B   1,B   6)    -34.3854         0.010000   
    270. D(B   7,B   8,B   1,B   2)    180.0000         0.010000   
    271. D(B   7,B   8,B   2,B   3)   -120.0000         0.010000   
    272. D(B   7,B   8,B   3,B   9)   -115.9702         0.010000   
    273. D(B   7,B   8,B   1,B   0)    -64.0298         0.010000   
    274. D(B   9,B   8,B   2,B   3)      0.0000         0.010000   
    275. D(B   1,B   8,B   2,B   3)   -120.0000         0.010000   
    276. D(B   9,B   8,B   3,B  10)     34.3853         0.010000   
    277. D(B   9,B   8,B   2,B   7)    120.0000         0.010000   
    278. D(B   1,B   8,B   7,B   6)     90.0000         0.041031   
    279. D(B   2,B   8,B   7,B   0)     28.8595         0.041031   
    280. D(B   2,B   8,B   7,B   1)      0.0000         0.041031   
    281. D(B   2,B   8,B   7,B   6)     90.0000         0.041031   
    282. D(B   9,B   8,B   7,B   0)    -61.1405         0.041031   
    283. D(B   9,B   8,B   7,B   2)    -90.0000         0.041031   
    284. D(B   9,B   8,B   7,B   1)    -90.0000         0.041031   
    285. D(B   9,B   8,B   7,B   6)      0.0000         0.041031   
    286. D(B   2,B   8,B   3,B   4)   -115.9702         0.010000   
    287. D(B   4,B   9,B   8,B   7)     61.1405         0.041031   
    288. D(B   3,B   9,B   8,B   2)      0.0000         0.041031   
    289. D(B   3,B   9,B   8,B   7)     90.0000         0.041031   
    290. D(B  10,B   9,B   8,B   3)    -90.0000         0.041031   
    291. D(B  10,B   9,B   8,B   1)    -61.1405         0.041031   
    292. D(B  10,B   9,B   8,B   2)    -90.0000         0.041031   
    293. D(B  10,B   9,B   8,B   7)      0.0000         0.041031   
    294. D(B   3,B   9,B   4,B   5)   -115.9702         0.010000   
    295. D(B  10,B   9,B   4,B   5)     64.0298         0.010000   
    296. D(B  10,B   9,B   4,B   3)    180.0000         0.010000   
    297. D(B   8,B   9,B   4,B  11)    -81.5848         0.010000   
    298. D(B   8,B   9,B   4,B   5)    -51.9403         0.010000   
    299. D(B   8,B   9,B   4,B   3)     64.0298         0.010000   
    300. D(B   4,B   9,B   3,B  10)      0.0000         0.010000   
    301. D(B   4,B   9,B   3,B   2)    120.0000         0.010000   
    302. D(B  10,B   9,B   3,B   8)    120.0000         0.010000   
    303. D(B  10,B   9,B   3,B   4)      0.0000         0.010000   
    304. D(B   8,B   9,B   4,B  10)   -115.9702         0.010000   
    305. D(B  10,B   9,B   3,B   2)    120.0000         0.010000   
    306. D(B   8,B   9,B   3,B  10)   -120.0000         0.010000   
    307. D(B   8,B   9,B   3,B   4)   -120.0000         0.010000   
    308. D(B  10,B   9,B   4,B  11)     34.3854         0.010000   
    309. D(B   8,B   9,B   3,B   2)      0.0000         0.010000   
    310. D(B   3,B   9,B   2,B   1)    115.9702         0.010000   
    311. D(B  10,B   9,B   2,B   7)     81.5848         0.010000   
    312. D(B  10,B   9,B   2,B   8)    115.9702         0.010000   
    313. D(B  10,B   9,B   2,B   3)    -64.0298         0.010000   
    314. D(B  10,B   9,B   2,B   1)     51.9403         0.010000   
    315. D(B   8,B   9,B   2,B   7)    -34.3854         0.010000   
    316. D(B   3,B   9,B   8,B   1)     28.8595         0.041031   
    317. D(B   8,B   9,B   2,B   3)    180.0000         0.010000   
    318. D(B   8,B   9,B   2,B   1)    -64.0298         0.010000   
    319. D(B   5,B  10,B   9,B   8)     61.1405         0.041031   
    320. D(B   4,B  10,B   9,B   3)      0.0000         0.041031   
    321. D(B   4,B  10,B   9,B   8)     90.0000         0.041031   
    322. D(B  11,B  10,B   9,B   2)    -61.1405         0.041031   
    323. D(B  11,B  10,B   9,B   4)    -90.0000         0.041031   
    324. D(B  11,B  10,B   9,B   3)    -90.0000         0.041031   
    325. D(B  11,B  10,B   9,B   8)      0.0000         0.041031   
    326. D(B   4,B  10,B   5,B   0)   -115.9702         0.010000   
    327. D(B  11,B  10,B   5,B   4)    180.0000         0.010000   
    328. D(B  11,B  10,B   5,B   0)     64.0298         0.010000   
    329. D(B   9,B  10,B   5,B   6)    -81.5848         0.010000   
    330. D(B   9,B  10,B   5,B   4)     64.0298         0.010000   
    331. D(B   9,B  10,B   5,B   0)    -51.9403         0.010000   
    332. D(B   5,B  10,B   4,B  11)      0.0000         0.010000   
    333. D(B   5,B  10,B   4,B   3)    120.0000         0.010000   
    334. D(B  11,B  10,B   4,B   9)    120.0000         0.010000   
    335. D(B  11,B  10,B   4,B   5)      0.0000         0.010000   
    336. D(B   9,B  10,B   5,B  11)   -115.9702         0.010000   
    337. D(B  11,B  10,B   4,B   3)    120.0000         0.010000   
    338. D(B   9,B  10,B   4,B  11)   -120.0000         0.010000   
    339. D(B   9,B  10,B   4,B   5)   -120.0000         0.010000   
    340. D(B  11,B  10,B   5,B   6)     34.3854         0.010000   
    341. D(B   9,B  10,B   4,B   3)      0.0000         0.010000   
    342. D(B   4,B  10,B   3,B   2)    115.9702         0.010000   
    343. D(B  11,B  10,B   3,B   8)     81.5848         0.010000   
    344. D(B  11,B  10,B   3,B   9)    115.9702         0.010000   
    345. D(B  11,B  10,B   3,B   4)    -64.0298         0.010000   
    346. D(B  11,B  10,B   3,B   2)     51.9403         0.010000   
    347. D(B   9,B  10,B   3,B   8)    -34.3853         0.010000   
    348. D(B   4,B  10,B   9,B   2)     28.8595         0.041031   
    349. D(B   9,B  10,B   3,B   4)    180.0000         0.010000   
    350. D(B   9,B  10,B   3,B   2)    -64.0298         0.010000   
    351. D(B   4,B  11,B  10,B   9)     90.0000         0.041031   
    352. D(B   5,B  11,B  10,B   4)      0.0000         0.041031   
    353. D(B   5,B  11,B  10,B   9)     90.0000         0.041031   
    354. D(B   6,B  11,B  10,B   3)    -61.1405         0.041031   
    355. D(B   6,B  11,B  10,B   4)    -90.0000         0.041031   
    356. D(B   6,B  11,B  10,B   9)      0.0000         0.041031   
    357. D(B   4,B  11,B   6,B   7)    -61.1405         0.041031   
    358. D(B   5,B  11,B   6,B   0)      0.0000         0.041031   
    359. D(B   5,B  11,B   6,B   7)    -90.0000         0.041031   
    360. D(B  10,B  11,B   6,B   1)     61.1405         0.041031   
    361. D(B  10,B  11,B   6,B   5)     90.0000         0.041031   
    362. D(B  10,B  11,B   6,B   0)     90.0000         0.041031   
    363. D(B  10,B  11,B   6,B   7)      0.0000         0.041031   
    364. D(B   4,B  11,B   5,B  10)      0.0000         0.010000   
    365. D(B  10,B  11,B   5,B   6)   -120.0000         0.010000   
    366. D(B  10,B  11,B   5,B   4)      0.0000         0.010000   
    367. D(B  10,B  11,B   5,B   0)   -120.0000         0.010000   
    368. D(B   6,B  11,B   5,B  10)    120.0000         0.010000   
    369. D(B   6,B  11,B   5,B   4)    120.0000         0.010000   
    370. D(B   6,B  11,B   5,B   0)      0.0000         0.010000   
    371. D(B   5,B  11,B   4,B   3)    115.9702         0.010000   
    372. D(B   4,B  11,B   5,B   0)   -120.0000         0.010000   
    373. D(B  10,B  11,B   4,B   9)    -34.3854         0.010000   
    374. D(B  10,B  11,B   4,B   5)    180.0000         0.010000   
    375. D(B  10,B  11,B   4,B   3)    -64.0298         0.010000   
    376. D(B   6,B  11,B   4,B   9)     81.5848         0.010000   
    377. D(B   6,B  11,B   4,B  10)    115.9702         0.010000   
    378. D(B   6,B  11,B   4,B   5)    -64.0298         0.010000   
    379. D(B   6,B  11,B   4,B   3)     51.9403         0.010000   
    380. D(B   5,B  11,B   6,B   1)    -28.8595         0.041031   
    381. D(B   5,B  11,B   0,B   1)   -115.9702         0.010000   
    382. D(B  10,B  11,B   0,B   7)    -81.5848         0.010000   
    383. D(B  10,B  11,B   0,B   6)   -115.9702         0.010000   
    384. D(B   6,B  11,B  10,B   5)    -90.0000         0.041031   
    385. D(B  10,B  11,B   0,B   5)     64.0298         0.010000   
    386. D(B  10,B  11,B   0,B   1)    -51.9403         0.010000   
    387. D(B   6,B  11,B   0,B   7)     34.3853         0.010000   
    388. D(B   5,B  11,B  10,B   3)     28.8595         0.041031   
    389. D(B   6,B  11,B   0,B   5)    180.0000         0.010000   
    390. D(B   6,B  11,B   0,B   1)     64.0298         0.010000   
    -----------------------------------------------------------------

Number of atoms                         .... 12
Number of degrees of freedom            .... 390


         *************************************************************
         *                GEOMETRY OPTIMIZATION CYCLE   1            *
         *************************************************************
---------------------------------
CARTESIAN COORDINATES (ANGSTROEM)
---------------------------------
  B      1.400000    0.000000    1.100000
  B      0.700000    1.212436    1.100000
  B     -0.700000    1.212436    1.100000
  B     -1.400000    0.000000    1.100000
  B     -0.700000   -1.212436    1.100000
  B      0.700000   -1.212436    1.100000
  B      1.400000    0.000000   -1.100000
  B      0.700000    1.212436   -1.100000
  B     -0.700000    1.212436   -1.100000
  B     -1.400000    0.000000   -1.100000
  B     -0.700000   -1.212436   -1.100000
  B      0.700000   -1.212436   -1.100000

----------------------------
CARTESIAN COORDINATES (A.U.)
----------------------------
  NO LB      ZA    FRAG     MASS         X           Y           Z
   0 B     5.0000    0    10.810    2.645617    0.000000    2.078699
   1 B     5.0000    0    10.810    1.322808    2.291172    2.078699
   2 B     5.0000    0    10.810   -1.322808    2.291172    2.078699
   3 B     5.0000    0    10.810   -2.645617    0.000000    2.078699
   4 B     5.0000    0    10.810   -1.322808   -2.291172    2.078699
   5 B     5.0000    0    10.810    1.322808   -2.291172    2.078699
   6 B     5.0000    0    10.810    2.645617    0.000000   -2.078699
   7 B     5.0000    0    10.810    1.322808    2.291172   -2.078699
   8 B     5.0000    0    10.810   -1.322808    2.291172   -2.078699
   9 B     5.0000    0    10.810   -2.645617    0.000000   -2.078699
  10 B     5.0000    0    10.810   -1.322808   -2.291172   -2.078699
  11 B     5.0000    0    10.810    1.322808   -2.291172   -2.078699

--------------------------------
INTERNAL COORDINATES (ANGSTROEM)
--------------------------------
 B      0   0   0     0.000000000000     0.00000000     0.00000000
 B      1   0   0     1.400000376463     0.00000000     0.00000000
 B      2   1   0     1.400000000000   119.99999110     0.00000000
 B      3   2   1     1.400000376463   119.99999110     0.00000000
 B      4   3   2     1.400000376463   120.00001779     0.00000000
 B      5   4   3     1.400000000000   119.99999110     0.00000000
 B      1   2   3     2.200000000000    90.00000000    90.00000000
 B      7   1   2     1.400000376463    90.00000000     0.00000000
 B      8   7   1     1.400000000000   119.99999110   270.00000000
 B      9   8   7     1.400000376463   119.99999110     0.00000000
 B     10   9   8     1.400000376463   120.00001779     0.00000000
 B     11  10   9     1.400000000000   119.99999110     0.00000000

---------------------------
INTERNAL COORDINATES (A.U.)
---------------------------
 B      0   0   0     0.000000000000     0.00000000     0.00000000
 B      1   0   0     2.645617298901     0.00000000     0.00000000
 B      2   1   0     2.645616587490   119.99999110     0.00000000
 B      3   2   1     2.645617298901   119.99999110     0.00000000
 B      4   3   2     2.645617298901   120.00001779     0.00000000
 B      5   4   3     2.645616587490   119.99999110     0.00000000
 B      1   2   3     4.157397494627    90.00000000    90.00000000
 B      7   1   2     2.645617298901    90.00000000     0.00000000
 B      8   7   1     2.645616587490   119.99999110   270.00000000
 B      9   8   7     2.645617298901   119.99999110     0.00000000
 B     10   9   8     2.645617298901   120.00001779     0.00000000
 B     11  10   9     2.645616587490   119.99999110     0.00000000

---------------------
BASIS SET INFORMATION
---------------------
There are 1 groups of distinct atoms

 Group   1 Type B   : 11s6p1d contracted to 5s3p1d pattern {62111/411/1}

Atom   0B    basis set group =>   1
Atom   1B    basis set group =>   1
Atom   2B    basis set group =>   1
Atom   3B    basis set group =>   1
Atom   4B    basis set group =>   1
Atom   5B    basis set group =>   1
Atom   6B    basis set group =>   1
Atom   7B    basis set group =>   1
Atom   8B    basis set group =>   1
Atom   9B    basis set group =>   1
Atom  10B    basis set group =>   1
Atom  11B    basis set group =>   1
---------------------------------
AUXILIARY/J BASIS SET INFORMATION
---------------------------------
There are 1 groups of distinct atoms

 Group   1 Type B   : 8s3p3d contracted to 6s3p3d pattern {311111/111/111}

Atom   0B    basis set group =>   1
Atom   1B    basis set group =>   1
Atom   2B    basis set group =>   1
Atom   3B    basis set group =>   1
Atom   4B    basis set group =>   1
Atom   5B    basis set group =>   1
Atom   6B    basis set group =>   1
Atom   7B    basis set group =>   1
Atom   8B    basis set group =>   1
Atom   9B    basis set group =>   1
Atom  10B    basis set group =>   1
Atom  11B    basis set group =>   1


           ************************************************************
           *        Program running with 8 parallel MPI-processes     *
           *              working on a common directory               *
           ************************************************************
------------------------------------------------------------------------------
                             ORCA STARTUP CALCULATIONS
                           -- RI-GTO INTEGRALS CHOSEN --
------------------------------------------------------------------------------
------------------------------------------------------------------------------
                   ___                                                        
                  /   \      - P O W E R E D   B Y -                         
                 /     \                                                     
                 |  |  |   _    _      __       _____    __    __             
                 |  |  |  | |  | |    /  \     |  _  \  |  |  /  |          
                  \  \/   | |  | |   /    \    | | | |  |  | /  /          
                 / \  \   | |__| |  /  /\  \   | |_| |  |  |/  /          
                |  |  |   |  __  | /  /__\  \  |    /   |      \           
                |  |  |   | |  | | |   __   |  |    \   |  |\   \          
                \     /   | |  | | |  |  |  |  | |\  \  |  | \   \       
                 \___/    |_|  |_| |__|  |__|  |_| \__\ |__|  \__/        
                                                                              
                      - O R C A' S   B I G   F R I E N D -                    
                                      &                                       
                       - I N T E G R A L  F E E D E R -                       
                                                                              
 v1 FN, 2020, v2 2021, v3 2022-2024                                           
------------------------------------------------------------------------------


----------------------
SHARK INTEGRAL PACKAGE
----------------------

Number of atoms                             ...     12
Number of basis functions                   ...    228
Number of shells                            ...    108
Maximum angular momentum                    ...      2
Integral batch strategy                     ... SHARK/LIBINT Hybrid
RI-J (if used) integral strategy            ... SPLIT-RIJ (Revised 2003 algorithm where possible)
Printlevel                                  ...      1
Contraction scheme used                     ... SEGMENTED contraction
Prescreening option                         ... SCHWARTZ
   Thresh                                   ... 2.500e-11
   Tcut                                     ... 2.500e-12
   Tpresel                                  ... 2.500e-12 
Coulomb Range Separation                    ... NOT USED
Exchange Range Separation                   ... NOT USED
Multipole approximations                    ... NOT USED
Finite Nucleus Model                        ... NOT USED
CABS basis                                  ... NOT available
Auxiliary Coulomb fitting basis             ... AVAILABLE
   # of basis functions in Aux-J            ...    360
   # of shells in Aux-J                     ...    144
   Maximum angular momentum in Aux-J        ...      2
Auxiliary J/K fitting basis                 ... NOT available
Auxiliary Correlation fitting basis         ... NOT available
Auxiliary 'external' fitting basis          ... NOT available

Checking pre-screening integrals            ... done (  0.0 sec) Dimension = 108
   => SHARK Basis and OBASIS are compatible. Storing Pre-screening
Shell pair information
Shell pair cut-off parameter TPreSel        ...   2.5e-12
Total number of shell pairs                 ...      5886
Shell pairs after pre-screening             ...      5706
Total number of primitive shell pairs       ...     23700
Primitive shell pairs kept                  ...     16878
          la=0 lb=0:   1650 shell pairs
          la=1 lb=0:   2160 shell pairs
          la=1 lb=1:    666 shell pairs
          la=2 lb=0:    720 shell pairs
          la=2 lb=1:    432 shell pairs
          la=2 lb=2:     78 shell pairs

Checking whether 4 symmetric matrices of dimension 228 fit in memory
:Max Core in MB      =   1500.00
 MB in use           =      7.43
 MB left             =   1492.57
 MB needed           =      0.80
 Data fit in memory  = YES
Calculating RI/J V-Matrix + Cholesky decomp.... done (  0.0 sec)
Calculating Nuclear repulsion               ... done (  0.0 sec) ENN=    374.950000237266 Eh

Diagonalization of the overlap matrix:
Smallest eigenvalue                        ... 8.546e-08
Time for diagonalization                   ...    0.003 sec
Threshold for overlap eigenvalues          ... 1.000e-07
Number of eigenvalues below threshold      ... 1
Smallest eigenvalue above threshold        ... 2.156e-06

IMPORTANT:
Smallest eigenvalue of S below the DiffSThresh (1.000e-06) while
Thresh>1e-12 and/or TCut>1e-13! In order to avoid SCF convergence issues,
Thresh will be set to at least 1e-12 and TCut to at least 1e-13.
This can be turned off by adding %SCF DiffSThresh -1 END to the input.

Time for construction of square roots      ...    0.003 sec
Total time needed                          ...    0.006 sec

-------------------
DFT GRID GENERATION
-------------------

General Integration Accuracy     IntAcc      ... 4.388
Radial Grid Type                 RadialGrid  ... OptM3 with GC (2021)
Angular Grid (max. ang.)         AngularGrid ... 4 (Lebedev-302)
Angular grid pruning method      GridPruning ... 4 (adaptive)
Weight generation scheme         WeightScheme... mBecke (2022)
Basis function cutoff            BFCut       ... 1.0000e-11
Integration weight cutoff        WCut        ... 1.0000e-14
Partially contracted basis set               ... off
Rotationally invariant grid construction     ... off
Angular grids for H and He will be reduced by one unit

Total number of grid points                  ...    70056
Total number of batches                      ...     1104
Average number of points per batch           ...       63
Average number of grid points per atom       ...     5838
Grids setup in   0.3 sec
Initializing property integral containers    ... done (  0.1 sec)

SHARK setup successfully completed in   0.5 seconds

Maximum memory used throughout the entire STARTUP-calculation: 20.5 MB


           ************************************************************
           *        Program running with 8 parallel MPI-processes     *
           *              working on a common directory               *
           ************************************************************
-------------------------------------------------------------------------------
                                 ORCA GUESS
                   Start orbitals & Density for SCF / CASSCF
-------------------------------------------------------------------------------

------------
SCF SETTINGS
------------
Hamiltonian:
 Density Functional     Method          .... DFT(GTOs)
  Functional kind                       .... Exchange
  Functional name                       .... Re-regularized SCAN exchange by Furness et al
  Functional family                     .... MGGA
  Functional refs                              
    [ 0] J. W. Furness, A. D. Kaplan, J. Ning, J. P. Perdew, and J. Sun.,  J. Phys. Chem. Lett. 11, 8208-8215 (2020), doi: 10.1021/acs.jpclett.0c02405
    [ 1] J. W. Furness, A. D. Kaplan, J. Ning, J. P. Perdew, and J. Sun.,  J. Phys. Chem. Lett. 11, 9248-9248 (2020), doi: 10.1021/acs.jpclett.0c03077
  Functional external parameters        .... 6
    Parameter  0 _c1        =  6.670000e-01 : c1 parameter        
    Parameter  1 _c2        =  8.000000e-01 : c2 parameter        
    Parameter  2 _d         =  1.240000e+00 : d parameter         
    Parameter  3 _k1        =  6.500000e-02 : k1 parameter        
    Parameter  4 _eta       =  1.000000e-03 : eta parameter       
    Parameter  5 _dp2       =  3.610000e-01 : dp2 parameter       
  Functional kind                       .... Correlation
  Functional name                       .... Re-regularized SCAN correlation by Furness et al
  Functional family                     .... MGGA
  Functional refs                              
    [ 0] J. W. Furness, A. D. Kaplan, J. Ning, J. P. Perdew, and J. Sun.,  J. Phys. Chem. Lett. 11, 8208-8215 (2020), doi: 10.1021/acs.jpclett.0c02405
    [ 1] J. W. Furness, A. D. Kaplan, J. Ning, J. P. Perdew, and J. Sun.,  J. Phys. Chem. Lett. 11, 9248-9248 (2020), doi: 10.1021/acs.jpclett.0c03077
  Functional external parameters        .... 1
    Parameter  0 _eta       =  1.000000e-03 : Regularization parameter
 Gradients option       PostSCFGGA      .... off
 RI-approximation to the Coulomb term is turned on
   Number of AuxJ basis functions       .... 360


General Settings:
 Integral files         IntName         .... b12_hexagonal_prism_m5_screen
 Hartree-Fock type      HFTyp           .... UHF
 Total Charge           Charge          ....    0
 Multiplicity           Mult            ....    5
 Number of Electrons    NEL             ....   60
 Basis Dimension        Dim             ....  228
 Nuclear Repulsion      ENuc            ....    374.9500002373 Eh

Convergence Acceleration:
 AO-DIIS                CNVDIIS         .... on
   Start iteration      DIISMaxIt       ....    12
   Startup error        DIISStart       ....  0.200000
   # of expansion vecs  DIISMaxEq       ....     5
   Bias factor          DIISBfac        ....   1.050
   Max. coefficient     DIISMaxC        ....  10.000
 MO-DIIS                CNVKDIIS        .... off
 Trust-Rad. Augm. Hess. CNVTRAH         .... auto
   Auto Start mean grad. ratio tolernc. ....  1.125000
   Auto Start start iteration           ....    50
   Auto Start num. interpolation iter.  ....    10
   Max. Number of Micro iterations      ....    24
   Max. Number of Macro iterations      .... Maxiter - #DIIS iter
   Number of Davidson start vectors     ....     2
   Converg. threshold    (grad. norm)   ....   1.000e-05
   Grad. Scal. Fac. for Micro threshold ....   0.100
   Minimum threshold for Micro iter.    ....   1.000e-02
   NR start threshold (gradient norm)   ....   1.000e-04
   Initial trust radius                 ....   0.400
   Minimum AH scaling param. (alpha)    ....   1.000
   Maximum AH scaling param. (alpha)    .... 1000.000
   Quad. conv. algorithm                .... NR
   White noise on init. David. guess    .... on
   Maximum white noise                  ....   0.010
   Pseudo random numbers                .... off
   Inactive MOs                         .... canonical
   Orbital update algorithm             .... Taylor
   Preconditioner                       .... Diag
   Full preconditioner red. dimension   ....   250
   COSX micro iterations for RIJONX calc.... off
 SOSCF                 CNVSOSCF           .... on
   Start iteration     SOSCFMaxIt         ....   150
   Startup grad/error  SOSCFStart         ....  0.003300
   Hessian update      SOSCFHessUp        .... L-BFGS
   Autom. constraints  SOSCFAutoConstrain .... off
 Level Shifting         CNVShift        .... on
   Level shift para.    LevelShift      ....    0.2500
   Turn off err/grad.   ShiftErr        ....    0.0010
 Zerner damping         CNVZerner       .... off
 Static damping         CNVDamp         .... on
   Fraction old density DampFac         ....    0.7000
   Max. Damping (<1)    DampMax         ....    0.9800
   Min. Damping (>=0)   DampMin         ....    0.0000
   Turn off err/grad.   DampErr         ....    0.1000

SCF Procedure:
 Maximum # iterations   MaxIter         ....   125
 SCF integral mode      SCFMode         .... Direct
   Integral package                     .... SHARK and LIBINT hybrid scheme
 Reset frequency        DirectResetFreq ....    20
 Integral Threshold     Thresh          ....  1.000e-12 Eh
 Primitive CutOff       TCut            ....  1.000e-13 Eh

Convergence Tolerance:
 Convergence Check Mode ConvCheckMode   .... Total+1el-Energy
 Convergence forced     ConvForced      .... 0
 Energy Change          TolE            ....  1.000e-08 Eh
 1-El. energy change                    ....  1.000e-05 Eh
 Orbital Gradient       TolG            ....  1.000e-05
 Orbital Rotation angle TolX            ....  1.000e-05
 DIIS Error             TolErr          ....  5.000e-07

------------------------------
INITIAL GUESS: MODEL POTENTIAL
------------------------------
Loading Hartree-Fock densities                     ... done
Calculating cut-offs                               ... done
Initializing the effective Hamiltonian             ... done
Setting up the integral package (SHARK)            ... done
Starting the Coulomb interaction                   ... done (   0.0 sec)
Making the grid                                    ... done (   0.1 sec)
Mapping shells                                     ... done
Starting the XC term evaluation                    ... done (   0.1 sec)
  promolecular density results
     # of electrons  =     59.991628799
     EX              =    -45.801647336
     EC              =     -1.883399072
     EX+EC           =    -47.685046408
Transforming the Hamiltonian                       ... done (   0.0 sec)
Diagonalizing the Hamiltonian                      ... done (   0.0 sec)
Back transforming the eigenvectors                 ... done (   0.0 sec)
Now organizing SCF variables                       ... done
                      ------------------
                      INITIAL GUESS DONE (   0.2 sec)
                      ------------------
             **** ENERGY FILE WAS UPDATED (b12_hexagonal_prism_m5_screen.en.tmp) ****
Finished Guess after   0.3 sec
Maximum memory used throughout the entire GUESS-calculation: 10.9 MB


           ************************************************************
           *        Program running with 8 parallel MPI-processes     *
           *              working on a common directory               *
           ************************************************************

-------------------------------------------------------------------------------------------
                                      ORCA LEAN-SCF
                              memory conserving SCF solver
-------------------------------------------------------------------------------------------

----------------------------------------D-I-I-S--------------------------------------------
Iteration    Energy (Eh)           Delta-E    RMSDP     MaxDP     DIISErr   Damp  Time(sec)
-------------------------------------------------------------------------------------------
               ***  Starting incremental Fock matrix formation  ***
    1    -296.4393449997315315     0.00e+00  1.04e-02  3.62e-02  1.10e-01  0.700   0.8
Warning: op=0 Small HOMO/LUMO gap (  -0.042) - skipping pre-diagonalization
         Will do a full diagonalization
    2    -296.8033291794709498    -3.64e-01  1.24e-02  9.91e-02  4.92e-02  0.700   0.8
                               ***Turning on AO-DIIS***
    3    -296.9255196235937433    -1.22e-01  4.46e-03  4.49e-02  1.47e-02  0.700   0.8
    4    -296.9926793834513887    -6.72e-02  1.32e-02  1.57e-01  1.03e-02  0.000   0.9
    5    -297.1578660983141731    -1.65e-01  3.90e-03  4.29e-02  8.58e-03  0.000   0.9
                              *** Initializing SOSCF ***
---------------------------------------S-O-S-C-F--------------------------------------
Iteration    Energy (Eh)           Delta-E    RMSDP     MaxDP     MaxGrad    Time(sec)
--------------------------------------------------------------------------------------
    6    -297.1638453826930686    -5.98e-03  4.55e-03  4.48e-02  2.94e-03     0.9
               *** Restarting incremental Fock matrix formation ***
    7    -297.1646510171955811    -8.06e-04  2.96e-03  2.56e-02  3.07e-03     1.0
    8    -297.1646811071356638    -3.01e-05  1.52e-03  1.26e-02  2.21e-03     0.8
    9    -297.1647986518250377    -1.18e-04  3.70e-04  3.94e-03  3.01e-04     0.8
   10    -297.1648015299591066    -2.88e-06  1.93e-04  1.82e-03  1.76e-04     0.8
   11    -297.1648029174602357    -1.39e-06  1.56e-04  1.59e-03  9.05e-05     0.7
   12    -297.1648032888710418    -3.71e-07  9.65e-05  1.04e-03  3.76e-05     0.8
   13    -297.1648033181591586    -2.93e-08  1.63e-05  1.82e-04  1.23e-05     0.7
   14    -297.1648033247296894    -6.57e-09  5.13e-06  5.13e-05  1.09e-06     0.7
                 **** Energy Check signals convergence ****

               *****************************************************
               *                     SUCCESS                       *
               *           SCF CONVERGED AFTER  14 CYCLES          *
               *****************************************************

             **** ENERGY FILE WAS UPDATED (b12_hexagonal_prism_m5_screen.en.tmp) ****

----------------
TOTAL SCF ENERGY
----------------

Total Energy       :       -297.16480332722432 Eh           -8086.26540 eV

Components:
Nuclear Repulsion  :        374.95000023726578 Eh           10202.90821 eV
Electronic Energy  :       -672.11480356449010 Eh          -18289.17361 eV
One Electron Energy:      -1139.41955824255638 Eh          -31005.18245 eV
Two Electron Energy:        467.30475467806633 Eh           12716.00884 eV

Virial components:
Potential Energy   :       -597.08947793790003 Eh          -16247.63071 eV
Kinetic Energy     :        299.92467461067577 Eh            8161.36531 eV
Virial Ratio       :          1.99079811860417

DFT components:
N(Alpha)           :       32.000487070881 electrons
N(Beta)            :       28.000548259301 electrons
N(Total)           :       60.001035330183 electrons
E(X)               :      -47.291252388129 Eh       
E(C)               :       -1.859304008329 Eh       
E(XC)              :      -49.150556396458 Eh       

---------------
SCF CONVERGENCE
---------------

  Last Energy change         ...    6.5705e-09  Tolerance :   1.0000e-08
  Last MAX-Density change    ...    5.1298e-05  Tolerance :   1.0000e-07
  Last RMS-Density change    ...    5.1255e-06  Tolerance :   5.0000e-09
  Last DIIS Error            ...    2.9412e-03  Tolerance :   5.0000e-07
  Last Orbital Gradient      ...    1.0896e-06  Tolerance :   1.0000e-05
  Last Orbital Rotation      ...    4.1206e-06  Tolerance :   1.0000e-05


----------------------
UHF SPIN CONTAMINATION
----------------------

Warning: in a DFT calculation there is little theoretical justification to 
         calculate <S**2> as in Hartree-Fock theory. We will do it anyways
         but you should keep in mind that the values have only limited relevance

Expectation value of <S**2>     :     6.013393
Ideal value S*(S+1) for S=2.0   :     6.000000
Deviation                       :     0.013393

----------------
ORBITAL ENERGIES
----------------
                 SPIN UP ORBITALS
  NO   OCC          E(Eh)            E(eV) 
   0   1.0000      -6.619343      -180.1215 
   1   1.0000      -6.619339      -180.1214 
   2   1.0000      -6.618041      -180.0860 
   3   1.0000      -6.618040      -180.0860 
   4   1.0000      -6.618036      -180.0859 
   5   1.0000      -6.618035      -180.0859 
   6   1.0000      -6.615419      -180.0147 
   7   1.0000      -6.615418      -180.0147 
   8   1.0000      -6.615411      -180.0145 
   9   1.0000      -6.615410      -180.0145 
  10   1.0000      -6.614099      -179.9788 
  11   1.0000      -6.614090      -179.9785 
  12   1.0000      -0.714254       -19.4358 
  13   1.0000      -0.606124       -16.4935 
  14   1.0000      -0.564014       -15.3476 
  15   1.0000      -0.564010       -15.3475 
  16   1.0000      -0.452095       -12.3021 
  17   1.0000      -0.452093       -12.3021 
  18   1.0000      -0.415705       -11.3119 
  19   1.0000      -0.415704       -11.3119 
  20   1.0000      -0.377086       -10.2610 
  21   1.0000      -0.333305        -9.0697 
  22   1.0000      -0.331509        -9.0208 
  23   1.0000      -0.331508        -9.0208 
  24   1.0000      -0.328281        -8.9330 
  25   1.0000      -0.277308        -7.5459 
  26   1.0000      -0.270677        -7.3655 
  27   1.0000      -0.243955        -6.6384 
  28   1.0000      -0.243952        -6.6383 
  29   1.0000      -0.204407        -5.5622 
  30   1.0000      -0.204402        -5.5621 
  31   1.0000      -0.140314        -3.8181 
  32   0.0000      -0.138809        -3.7772 
  33   0.0000      -0.138808        -3.7772 
  34   0.0000      -0.135598        -3.6898 
  35   0.0000      -0.078833        -2.1451 
  36   0.0000      -0.078831        -2.1451 
  37   0.0000      -0.028604        -0.7784 
  38   0.0000      -0.028602        -0.7783 
  39   0.0000      -0.027735        -0.7547 
  40   0.0000      -0.027733        -0.7547 
  41   0.0000      -0.026285        -0.7152 
  42   0.0000      -0.005441        -0.1481 

                 SPIN DOWN ORBITALS
  NO   OCC          E(Eh)            E(eV) 
   0   1.0000      -6.614644      -179.9936 
   1   1.0000      -6.614643      -179.9936 
   2   1.0000      -6.613355      -179.9586 
   3   1.0000      -6.613353      -179.9585 
   4   1.0000      -6.613352      -179.9585 
   5   1.0000      -6.613350      -179.9584 
   6   1.0000      -6.610757      -179.8879 
   7   1.0000      -6.610755      -179.8878 
   8   1.0000      -6.610751      -179.8877 
   9   1.0000      -6.610749      -179.8876 
  10   1.0000      -6.609451      -179.8523 
  11   1.0000      -6.609440      -179.8520 
  12   1.0000      -0.684260       -18.6197 
  13   1.0000      -0.571872       -15.5614 
  14   1.0000      -0.542375       -14.7588 
  15   1.0000      -0.542370       -14.7586 
  16   1.0000      -0.426508       -11.6059 
  17   1.0000      -0.426507       -11.6058 
  18   1.0000      -0.398690       -10.8489 
  19   1.0000      -0.398685       -10.8488 
  20   1.0000      -0.361964        -9.8495 
  21   1.0000      -0.320049        -8.7090 
  22   1.0000      -0.313737        -8.5372 
  23   1.0000      -0.313735        -8.5372 
  24   1.0000      -0.287997        -7.8368 
  25   1.0000      -0.268573        -7.3082 
  26   1.0000      -0.232721        -6.3327 
  27   1.0000      -0.232719        -6.3326 
  28   0.0000      -0.222758        -6.0616 
  29   0.0000      -0.153242        -4.1699 
  30   0.0000      -0.153234        -4.1697 
  31   0.0000      -0.105724        -2.8769 
  32   0.0000      -0.088458        -2.4071 
  33   0.0000      -0.088454        -2.4069 
  34   0.0000      -0.086322        -2.3489 
  35   0.0000      -0.048550        -1.3211 
  36   0.0000      -0.048537        -1.3208 
  37   0.0000      -0.004348        -0.1183 
  38   0.0000      -0.004338        -0.1180 
*Only the first 10 virtual orbitals were printed.

                    ********************************
                    * MULLIKEN POPULATION ANALYSIS *
                    ********************************

--------------------------------------------
MULLIKEN ATOMIC CHARGES AND SPIN POPULATIONS
--------------------------------------------
   0 B :   -0.000158    0.333389
   1 B :    0.000079    0.333305
   2 B :    0.000079    0.333306
   3 B :   -0.000158    0.333389
   4 B :    0.000079    0.333306
   5 B :    0.000079    0.333305
   6 B :   -0.000159    0.333389
   7 B :    0.000079    0.333305
   8 B :    0.000079    0.333306
   9 B :   -0.000159    0.333389
  10 B :    0.000080    0.333306
  11 B :    0.000079    0.333305
Sum of atomic charges         :   -0.0000000
Sum of atomic spin populations:    4.0000000

-----------------------------------------------------
MULLIKEN REDUCED ORBITAL CHARGES AND SPIN POPULATIONS
-----------------------------------------------------
CHARGE
  0 B s       :     3.103858  s :     3.103858
      pz      :     0.578975  p :     1.869127
      px      :     0.393596
      py      :     0.896556
      dz2     :     0.004912  d :     0.027173
      dxz     :     0.003579
      dyz     :     0.005433
      dx2y2   :     0.006668
      dxy     :     0.006582

  1 B s       :     3.103667  s :     3.103667
      pz      :     0.578988  p :     1.869080
      px      :     0.770798
      py      :     0.519294
      dz2     :     0.004912  d :     0.027174
      dxz     :     0.004970
      dyz     :     0.004043
      dx2y2   :     0.006603
      dxy     :     0.006647

  2 B s       :     3.103667  s :     3.103667
      pz      :     0.578988  p :     1.869080
      px      :     0.770798
      py      :     0.519294
      dz2     :     0.004912  d :     0.027174
      dxz     :     0.004970
      dyz     :     0.004043
      dx2y2   :     0.006603
      dxy     :     0.006647

  3 B s       :     3.103858  s :     3.103858
      pz      :     0.578975  p :     1.869127
      px      :     0.393596
      py      :     0.896556
      dz2     :     0.004912  d :     0.027173
      dxz     :     0.003579
      dyz     :     0.005433
      dx2y2   :     0.006668
      dxy     :     0.006582

  4 B s       :     3.103667  s :     3.103667
      pz      :     0.578988  p :     1.869080
      px      :     0.770798
      py      :     0.519294
      dz2     :     0.004912  d :     0.027174
      dxz     :     0.004970
      dyz     :     0.004043
      dx2y2   :     0.006603
      dxy     :     0.006647

  5 B s       :     3.103667  s :     3.103667
      pz      :     0.578988  p :     1.869080
      px      :     0.770798
      py      :     0.519294
      dz2     :     0.004912  d :     0.027174
      dxz     :     0.004970
      dyz     :     0.004043
      dx2y2   :     0.006603
      dxy     :     0.006647

  6 B s       :     3.103858  s :     3.103858
      pz      :     0.578975  p :     1.869127
      px      :     0.393596
      py      :     0.896556
      dz2     :     0.004912  d :     0.027173
      dxz     :     0.003579
      dyz     :     0.005433
      dx2y2   :     0.006668
      dxy     :     0.006582

  7 B s       :     3.103667  s :     3.103667
      pz      :     0.578988  p :     1.869080
      px      :     0.770798
      py      :     0.519294
      dz2     :     0.004912  d :     0.027174
      dxz     :     0.004970
      dyz     :     0.004043
      dx2y2   :     0.006603
      dxy     :     0.006647

  8 B s       :     3.103667  s :     3.103667
      pz      :     0.578988  p :     1.869080
      px      :     0.770798
      py      :     0.519294
      dz2     :     0.004912  d :     0.027174
      dxz     :     0.004970
      dyz     :     0.004043
      dx2y2   :     0.006603
      dxy     :     0.006647

  9 B s       :     3.103859  s :     3.103859
      pz      :     0.578975  p :     1.869127
      px      :     0.393596
      py      :     0.896556
      dz2     :     0.004912  d :     0.027173
      dxz     :     0.003579
      dyz     :     0.005433
      dx2y2   :     0.006668
      dxy     :     0.006582

 10 B s       :     3.103666  s :     3.103666
      pz      :     0.578988  p :     1.869080
      px      :     0.770798
      py      :     0.519294
      dz2     :     0.004912  d :     0.027174
      dxz     :     0.004970
      dyz     :     0.004043
      dx2y2   :     0.006603
      dxy     :     0.006647

 11 B s       :     3.103667  s :     3.103667
      pz      :     0.578988  p :     1.869080
      px      :     0.770798
      py      :     0.519294
      dz2     :     0.004912  d :     0.027174
      dxz     :     0.004970
      dyz     :     0.004043
      dx2y2   :     0.006603
      dxy     :     0.006647


SPIN
  0 B s       :     0.085779  s :     0.085779
      pz      :     0.072883  p :     0.244281
      px      :     0.207753
      py      :    -0.036356
      dz2     :     0.000838  d :     0.003329
      dxz     :     0.001295
      dyz     :    -0.000080
      dx2y2   :    -0.000154
      dxy     :     0.001430

  1 B s       :     0.085641  s :     0.085641
      pz      :     0.072927  p :     0.244335
      px      :     0.024687
      py      :     0.146721
      dz2     :     0.000838  d :     0.003330
      dxz     :     0.000264
      dyz     :     0.000951
      dx2y2   :     0.001035
      dxy     :     0.000242

  2 B s       :     0.085641  s :     0.085641
      pz      :     0.072927  p :     0.244335
      px      :     0.024687
      py      :     0.146721
      dz2     :     0.000838  d :     0.003330
      dxz     :     0.000264
      dyz     :     0.000951
      dx2y2   :     0.001035
      dxy     :     0.000242

  3 B s       :     0.085779  s :     0.085779
      pz      :     0.072883  p :     0.244281
      px      :     0.207753
      py      :    -0.036356
      dz2     :     0.000838  d :     0.003329
      dxz     :     0.001295
      dyz     :    -0.000080
      dx2y2   :    -0.000154
      dxy     :     0.001430

  4 B s       :     0.085641  s :     0.085641
      pz      :     0.072927  p :     0.244335
      px      :     0.024687
      py      :     0.146721
      dz2     :     0.000838  d :     0.003330
      dxz     :     0.000264
      dyz     :     0.000951
      dx2y2   :     0.001035
      dxy     :     0.000242

  5 B s       :     0.085641  s :     0.085641
      pz      :     0.072927  p :     0.244335
      px      :     0.024687
[...]
   220. D(B  11,B   6,B   5,B  10)    -43.72  0.001219   -0.29    -44.01   
   221. D(B   7,B   6,B   5,B   0)    -48.66 -0.000341    0.03    -48.63   
   222. D(B   0,B   6,B   1,B   2)    -94.68 -0.001000    0.42    -94.27   
   223. D(B   2,B   7,B   6,B  11)     28.08  0.000488   -0.19     27.89   
   224. D(B   1,B   7,B   6,B   0)      6.64 -0.000206    0.14      6.78   
   225. D(B   1,B   7,B   6,B  11)     69.68  0.000805   -0.19     69.48   
   226. D(B   8,B   7,B   6,B   1)   -105.49 -0.000359   -0.09   -105.58   
   227. D(B   8,B   7,B   6,B  11)    -35.82  0.000446   -0.28    -36.10   
   228. D(B   1,B   7,B   2,B   3)   -129.08  0.000932   -0.31   -129.40   
   229. D(B   6,B   7,B   2,B   8)    -97.87 -0.000708    0.33    -97.54   
   230. D(B   8,B   7,B   2,B   1)   -179.06  0.000545   -0.27   -179.33   
   231. D(B   6,B   7,B   2,B   9)    -65.95 -0.000325    0.21    -65.74   
   232. D(B   6,B   7,B   2,B   3)    -46.02  0.000768   -0.25    -46.27   
   233. D(B   6,B   7,B   2,B   1)     83.07 -0.000164    0.06     83.13   
   234. D(B   2,B   7,B   1,B   8)     -0.82 -0.000474    0.21     -0.60   
   235. D(B   8,B   7,B   2,B   3)     51.85  0.001477   -0.58     51.28   
   236. D(B   2,B   7,B   1,B   0)    102.64  0.000541   -0.25    102.39   
   237. D(B   8,B   7,B   1,B   6)    112.12  0.000682   -0.23    111.89   
   238. D(B   8,B   7,B   6,B   5)    -71.41 -0.000460    0.05    -71.36   
   239. D(B   8,B   7,B   1,B   2)      0.82  0.000474   -0.21      0.60   
   240. D(B   8,B   7,B   2,B   9)     31.92  0.000383   -0.11     31.81   
   241. D(B   8,B   7,B   1,B   0)    103.46  0.001015   -0.46    103.00   
   242. D(B   6,B   7,B   1,B   0)     -8.66  0.000333   -0.23     -8.89   
   243. D(B   1,B   7,B   0,B   5)    132.67 -0.000826    0.33    132.99   
   244. D(B   6,B   7,B   0,B  11)    -32.26 -0.000557    0.14    -32.12   
   245. D(B   8,B   7,B   0,B   5)     45.95 -0.000266   -0.12     45.83   
   246. D(B   8,B   7,B   0,B   1)    -86.72  0.000560   -0.44    -87.16   
   247. D(B   8,B   7,B   0,B  11)     70.55 -0.000316   -0.04     70.51   
   248. D(B   6,B   7,B   0,B   5)    -56.86 -0.000508    0.06    -56.80   
   249. D(B   6,B   7,B   0,B   1)    170.48  0.000319   -0.27    170.21   
   250. D(B   8,B   7,B   6,B   0)    -98.85 -0.000566    0.05    -98.80   
   251. D(B   8,B   7,B   0,B   6)    102.81  0.000242   -0.18    102.63   
   252. D(B   1,B   7,B   6,B   5)     34.08 -0.000100    0.14     34.22   
   253. D(B   6,B   7,B   1,B   8)   -112.12 -0.000682    0.23   -111.89   
   254. D(B   6,B   7,B   1,B   2)   -111.30 -0.000208    0.01   -111.29   
   255. D(B   9,B   8,B   3,B   4)     68.35  0.000422   -0.15     68.20   
   256. D(B   9,B   8,B   3,B   2)    172.74  0.000774   -0.31    172.43   
   257. D(B   7,B   8,B   3,B  10)    -86.94  0.000337   -0.05    -86.99   
   258. D(B   7,B   8,B   3,B   4)    -57.57  0.000660   -0.29    -57.86   
   259. D(B   7,B   8,B   3,B   2)     46.82  0.001013   -0.45     46.37   
   260. D(B   1,B   8,B   2,B   7)     -0.67 -0.000396    0.22     -0.45   
   261. D(B   9,B   8,B   2,B   1)    130.70 -0.000248    0.00    130.70   
   262. D(B   7,B   8,B   2,B   9)   -130.02  0.000645   -0.22   -130.24   
   263. D(B   7,B   8,B   2,B   1)      0.67  0.000396   -0.22      0.45   
   264. D(B   2,B   8,B   1,B   0)    100.23  0.000453   -0.25     99.98   
   265. D(B   9,B   8,B   1,B   6)     90.42 -0.000700    0.19     90.61   
   266. D(B   9,B   8,B   1,B   7)    129.24 -0.000939    0.31    129.54   
   267. D(B   9,B   8,B   1,B   2)    -49.78 -0.000358    0.04    -49.74   
   268. D(B   9,B   8,B   1,B   0)     50.45  0.000096   -0.21     50.24   
   269. D(B   7,B   8,B   1,B   6)    -38.82  0.000239   -0.12    -38.93   
   270. D(B   7,B   8,B   1,B   2)   -179.01  0.000581   -0.27   -179.28   
   271. D(B   7,B   8,B   2,B   3)   -134.92  0.001147   -0.49   -135.41   
   272. D(B   7,B   8,B   3,B   9)   -125.92  0.000239   -0.14   -126.06   
   273. D(B   7,B   8,B   1,B   0)    -78.79  0.001034   -0.51    -79.30   
   274. D(B   9,B   8,B   2,B   3)     -4.90  0.000503   -0.27     -5.17   
   275. D(B   1,B   8,B   2,B   3)   -135.60  0.000751   -0.27   -135.86   
   276. D(B   9,B   8,B   3,B  10)     38.98  0.000098    0.09     39.07   
   277. D(B   9,B   8,B   2,B   7)    130.02 -0.000645    0.22    130.24   
   278. D(B   1,B   8,B   7,B   6)    108.56  0.000022    0.13    108.69   
   279. D(B   2,B   8,B   7,B   0)     42.75 -0.000187    0.28     43.03   
   280. D(B   2,B   8,B   7,B   1)     -0.62 -0.000363    0.15     -0.47   
   281. D(B   2,B   8,B   7,B   6)    107.95 -0.000341    0.28    108.22   
   282. D(B   9,B   8,B   7,B   0)    -25.15 -0.000729    0.45    -24.71   
   283. D(B   9,B   8,B   7,B   2)    -67.90 -0.000542    0.17    -67.73   
   284. D(B   9,B   8,B   7,B   1)    -68.52 -0.000906    0.32    -68.20   
   285. D(B   9,B   8,B   7,B   6)     40.05 -0.000883    0.44     40.49   
   286. D(B   2,B   8,B   3,B   4)   -104.39 -0.000353    0.16   -104.23   
   287. D(B   4,B   9,B   8,B   7)     27.65  0.000376   -0.12     27.53   
   288. D(B   3,B   9,B   8,B   2)      4.46 -0.000478    0.15      4.62   
   289. D(B   3,B   9,B   8,B   7)     73.41 -0.000104    0.03     73.43   
   290. D(B  10,B   9,B   8,B   3)   -112.28  0.000944   -0.49   -112.77   
   291. D(B  10,B   9,B   8,B   1)    -79.07  0.000588   -0.33    -79.40   
   292. D(B  10,B   9,B   8,B   2)   -107.82  0.000467   -0.34   -108.16   
   293. D(B  10,B   9,B   8,B   7)    -38.88  0.000840   -0.47    -39.34   
   294. D(B   3,B   9,B   4,B   5)   -131.09  0.000978   -0.34   -131.43   
   295. D(B  10,B   9,B   4,B   5)     47.37  0.001535   -0.69     46.68   
   296. D(B  10,B   9,B   4,B   3)    178.46  0.000557   -0.35    178.12   
   297. D(B   8,B   9,B   4,B  11)    -65.10 -0.000394    0.18    -64.92   
   298. D(B   8,B   9,B   4,B   5)    -48.08  0.000630   -0.28    -48.36   
   299. D(B   8,B   9,B   4,B   3)     83.01 -0.000348    0.06     83.08   
   300. D(B   4,B   9,B   3,B  10)      1.44 -0.000539    0.29      1.72   
   301. D(B   4,B   9,B   3,B   2)    105.45  0.000693   -0.24    105.21   
   302. D(B  10,B   9,B   3,B   8)    109.92  0.000565   -0.25    109.67   
   303. D(B  10,B   9,B   3,B   4)     -1.44  0.000539   -0.29     -1.72   
   304. D(B   8,B   9,B   4,B  10)    -95.45 -0.000905    0.41    -95.04   
   305. D(B  10,B   9,B   3,B   2)    104.01  0.001232   -0.52    103.49   
   306. D(B   8,B   9,B   3,B  10)   -109.92 -0.000565    0.25   -109.67   
   307. D(B   8,B   9,B   3,B   4)   -111.36 -0.000026   -0.03   -111.39   
   308. D(B  10,B   9,B   4,B  11)     30.35  0.000512   -0.23     30.12   
   309. D(B   8,B   9,B   3,B   2)     -5.91  0.000667   -0.27     -6.18   
   310. D(B   3,B   9,B   2,B   1)    131.86 -0.001397    0.44    132.29   
   311. D(B  10,B   9,B   2,B   7)     63.55  0.000453   -0.22     63.32   
   312. D(B  10,B   9,B   2,B   8)     94.83  0.000954   -0.36     94.47   
   313. D(B  10,B   9,B   2,B   3)    -91.83  0.001677   -0.67    -92.50   
   314. D(B  10,B   9,B   2,B   1)     40.03  0.000281   -0.24     39.80   
   315. D(B   8,B   9,B   2,B   7)    -31.28 -0.000501    0.14    -31.14   
   316. D(B   3,B   9,B   8,B   1)     33.21 -0.000356    0.16     33.38   
   317. D(B   8,B   9,B   2,B   3)    173.34  0.000723   -0.31    173.04   
   318. D(B   8,B   9,B   2,B   1)    -54.80 -0.000674    0.13    -54.67   
   319. D(B   5,B  10,B   9,B   8)     81.32 -0.000891    0.54     81.86   
   320. D(B   4,B  10,B   9,B   3)      1.14 -0.000429    0.20      1.34   
   321. D(B   4,B  10,B   9,B   8)    108.72 -0.000689    0.52    109.25   
   322. D(B  11,B  10,B   9,B   2)    -27.70 -0.000414    0.19    -27.51   
   323. D(B  11,B  10,B   9,B   4)    -72.59  0.000180   -0.18    -72.77   
   324. D(B  11,B  10,B   9,B   3)    -71.45 -0.000248    0.01    -71.43   
   325. D(B  11,B  10,B   9,B   8)     36.13 -0.000508    0.34     36.47   
   326. D(B   4,B  10,B   5,B   0)    -96.23 -0.000900    0.38    -95.85   
   327. D(B  11,B  10,B   5,B   4)    169.31  0.000442   -0.33    168.98   
   328. D(B  11,B  10,B   5,B   0)     73.08 -0.000458    0.05     73.13   
   329. D(B   9,B  10,B   5,B   6)    -90.29  0.000694   -0.24    -90.54   
   330. D(B   9,B  10,B   5,B   4)     42.01  0.001180   -0.62     41.39   
   331. D(B   9,B  10,B   5,B   0)    -54.22  0.000279   -0.24    -54.46   
   332. D(B   5,B  10,B   4,B  11)      7.70 -0.000373    0.28      7.98   
   333. D(B   5,B  10,B   4,B   3)    135.86 -0.000492    0.24    136.09   
   334. D(B  11,B  10,B   4,B   9)    129.38 -0.000572    0.25    129.63   
   335. D(B  11,B  10,B   4,B   5)     -7.70  0.000373   -0.28     -7.98   
   336. D(B   9,B  10,B   5,B  11)   -127.30  0.000737   -0.29   -127.59   
   337. D(B  11,B  10,B   4,B   3)    128.15 -0.000119   -0.04    128.12   
   338. D(B   9,B  10,B   4,B  11)   -129.38  0.000572   -0.25   -129.63   
   339. D(B   9,B  10,B   4,B   5)   -137.08  0.000945   -0.52   -137.61   
   340. D(B  11,B  10,B   5,B   6)     37.01 -0.000043    0.05     37.06   
   341. D(B   9,B  10,B   4,B   3)     -1.23  0.000453   -0.29     -1.51   
   342. D(B   4,B  10,B   3,B   2)    102.79  0.000516   -0.25    102.55   
   343. D(B  11,B  10,B   3,B   8)     83.77  0.000110   -0.05     83.72   
   344. D(B  11,B  10,B   3,B   9)    126.35 -0.000421    0.14    126.49   
   345. D(B  11,B  10,B   3,B   4)    -55.55  0.000300   -0.21    -55.77   
   346. D(B  11,B  10,B   3,B   2)     47.24  0.000816   -0.46     46.78   
   347. D(B   9,B  10,B   3,B   8)    -42.58  0.000531   -0.19    -42.77   
   348. D(B   4,B  10,B   9,B   2)     44.89 -0.000595    0.37     45.26   
   349. D(B   9,B  10,B   3,B   4)    178.09  0.000721   -0.35    177.74   
   350. D(B   9,B  10,B   3,B   2)    -79.11  0.001237   -0.60    -79.71   
   351. D(B   4,B  11,B  10,B   9)     65.90  0.000650   -0.25     65.65   
   352. D(B   5,B  11,B  10,B   4)      7.01 -0.000359    0.17      7.18   
   353. D(B   5,B  11,B  10,B   9)     72.90  0.000292   -0.08     72.82   
   354. D(B   6,B  11,B  10,B   3)    -73.29 -0.000138    0.07    -73.22   
   355. D(B   6,B  11,B  10,B   4)   -101.47 -0.000297    0.05   -101.42   
   356. D(B   6,B  11,B  10,B   9)    -35.58  0.000353   -0.20    -35.77   
   357. D(B   4,B  11,B   6,B   7)    -24.17 -0.001184    0.54    -23.63   
   358. D(B   5,B  11,B   6,B   0)     -1.46 -0.000582    0.19     -1.27   
   359. D(B   5,B  11,B   6,B   7)    -65.14 -0.001564    0.43    -64.71   
   360. D(B  10,B  11,B   6,B   1)     72.65  0.000190    0.06     72.71   
   361. D(B  10,B  11,B   6,B   5)     99.41  0.001384   -0.27     99.14   
   362. D(B  10,B  11,B   6,B   0)     97.94  0.000803   -0.07     97.87   
   363. D(B  10,B  11,B   6,B   7)     34.27 -0.000179    0.16     34.43   
   364. D(B   4,B  11,B   5,B  10)      9.07 -0.000483    0.28      9.35   
   365. D(B  10,B  11,B   5,B   6)   -112.24 -0.001014    0.26   -111.98   
   366. D(B  10,B  11,B   5,B   4)     -9.07  0.000483   -0.28     -9.35   
   367. D(B  10,B  11,B   5,B   0)   -110.34 -0.000263   -0.02   -110.36   
   368. D(B   6,B  11,B   5,B  10)    112.24  0.001014   -0.26    111.98   
   369. D(B   6,B  11,B   5,B   4)    103.18  0.001497   -0.54    102.63   
   370. D(B   6,B  11,B   5,B   0)      1.90  0.000750   -0.28      1.62   
   371. D(B   5,B  11,B   4,B   3)    128.50 -0.000559    0.17    128.68   
   372. D(B   4,B  11,B   5,B   0)   -101.28 -0.000746    0.26   -101.02   
   373. D(B  10,B  11,B   4,B   9)    -34.20 -0.000188    0.02    -34.18   
   374. D(B  10,B  11,B   4,B   5)    168.84  0.000709   -0.32    168.51   
   375. D(B  10,B  11,B   4,B   3)    -62.66  0.000151   -0.15    -62.81   
   376. D(B   6,B  11,B   4,B   9)     66.61  0.000525   -0.29     66.32   
   377. D(B   6,B  11,B   4,B  10)    100.80  0.000713   -0.31    100.50   
   378. D(B   6,B  11,B   4,B   5)    -90.36  0.001422   -0.63    -90.99   
   379. D(B   6,B  11,B   4,B   3)     38.15  0.000864   -0.46     37.69   
   380. D(B   5,B  11,B   6,B   1)    -26.76 -0.001194    0.33    -26.43   
   381. D(B   5,B  11,B   0,B   1)   -131.02  0.000463   -0.22   -131.24   
   382. D(B  10,B  11,B   0,B   7)    -73.15  0.000373   -0.02    -73.18   
   383. D(B  10,B  11,B   0,B   6)   -105.19 -0.000181    0.16   -105.03   
   384. D(B   6,B  11,B  10,B   5)   -108.48  0.000061   -0.12   -108.60   
   385. D(B  10,B  11,B   0,B   5)     76.86  0.000644   -0.19     76.67   
   386. D(B  10,B  11,B   0,B   1)    -54.16  0.001108   -0.41    -54.56   
   387. D(B   6,B  11,B   0,B   7)     32.03  0.000555   -0.18     31.85   
   388. D(B   5,B  11,B  10,B   3)     35.19 -0.000199    0.18     35.38   
   389. D(B   6,B  11,B   0,B   5)   -177.95  0.000825   -0.35   -178.30   
   390. D(B   6,B  11,B   0,B   1)     51.03  0.001289   -0.57     50.46   
    ----------------------------------------------------------------------------

Geometry step timings:
Preparation and reading OPT file:      0.005 s (18.519 %)
Internal coordinates            :      0.000 s ( 0.000 %)
B/P matrices and projection     :      0.006 s (22.222 %)
Hessian update/contruction      :      0.002 s ( 7.407 %)
Making the step                 :      0.012 s (44.444 %)
Converting the step to Cartesian:      0.000 s ( 0.000 %)
Storing new data                :      0.000 s ( 0.000 %)
Checking convergence            :      0.000 s ( 0.000 %)
Final printing                  :      0.002 s ( 7.407 %)
Total time                      :      0.027 s

Time for energy+gradient        :     10.333 s
Time for complete geometry iter :     10.519 s




    ----------------------------------------------------------------------------
                                  WARNING !!!
       The optimization did not converge but reached the maximum number of
       optimization cycles.
       Please check your results very carefully.
    ----------------------------------------------------------------------------


Converting b12_hexagonal_prism_m5_screen.gbw to JSON (see b12_hexagonal_prism_m5_screen.2jsonout) ... done

--------------------------------
SUGGESTED CITATIONS FOR THIS RUN
--------------------------------

Below you find a list of papers that are relevant to this ORCA run
We neither can nor want to force you to cite these papers, but we appreciate if you do
You receive ORCA, which is the product of decades of hard work by many enthusiastic individuals, for free
The only thing we kindly ask in return is that you cite our papers,
We deeply appreciate it, if you show your appreciation for ORCA by not just citing the generic ORCA reference.

Please note that relegating all ORCA citations to the supporting information does *not* help us.
SI sections are not indexed - citations you put there will not count into any citation statistics
But we need these citations in order to attract the funding resources that allow us to do what we are doing

Therefore, if you are a happy ORCA user, please consider citing a few of the papers listed below in the main body of your paper

In addition to the list printed below, the program has created the file b12_hexagonal_prism_m5_screen.bibtex that contains the list in bibtex format
You can import this file easily into all common literature databanks and citation aid programs

It goes without saying that in many instances, there are alternative algorithms to achieve similar
results as the ones you have gotten from ORCA. It is, of course, also the case that in some instances
ORCA just re-implements algorithms worked out by others. We are fully aware of that and we are also
fully appreciative of our colleagues work. Hence this citation list should not be read as indicating
that the listed papers, which are focused on our own work, are the only ones worth citing. It simply
meant to make it easier for users to cite ORCA specific papers. It is not a substitute for doing your
own literature research and citing the relevant literature in a scientifically appropriate manner.

List of essential papers. We consider these as the minimum necessary citations

  1. Grimme, S.; Hansen, A.; Ehlert, S.; Mewes, J.
     r2SCAN-3c: A 'Swiss army knife' composite electronic-structure method
     J. Chem. Phys. 2021 154 , 064103
     doi.org/10.1063/5.0040021
  2. Neese, F.
     Software update: the ORCA program system, version 6.0
     WIRES Comput. Molec. Sci. 2025 15(1), e70019
     doi.org/10.1002/wcms.70019

List of papers to cite with high priority. The work reported in these papers was absolutely
necessary for this run to complete.
Our perspective: the developers of density functionals and basis sets usually get cited in chemistry papers
Good! But without the algorithms to do something with them, the functionals or basis sets would not do anything.
Hence, in our opinion, the algorithm design and method developments papers are equally worthy of getting cited

  1. Neese, F.
     An improvement of the resolution of the identity approximation for the formation of the Coulomb matrix
     J. Comp. Chem. 2003 24(14), 1740-1747
     doi.org/10.1002/jcc.10318
  2. Caldeweyher, E.; Bannwarth, C.; Grimme, S.
     Extension of the D3 dispersion coefficient model
     J. Chem. Phys. 2017 147 , 034112
     doi.org/10.1063/1.4993215
  3. Lehtola, S.; Steigemann, C.; Oliveira, M.; Marques, M.
     Recent developments in Libxc - A comprehensive library of functionals for density functional theory
     Software X 2018 7 , 
     doi.org/10.1016/j.softx.2017.11.002
  4. Caldeweyher, E.; Ehlert, S.; Hansen, A.; Neugebauer, H.; Spicher, S.; Bannwarth, C.; Grimme, S.
     A generally applicable atomic-charge dependent London dispersion correction
     J. Chem. Phys. 2019 150 , 154122
     doi.org/10.1063/1.5090222
  5. Neese, F.
     The SHARK Integral Generation and Digestion System
     J. Comp. Chem. 2022 44(3), 381
     doi.org/10.1002/jcc.26942

List of suggested additional citations. These are papers that are important in the 'surrounding' of 
of this run, or papers that preceded the highly important papers. If you like your results we are grateful for a citation.

  1. Neese, F.
     The ORCA program system
     WIRES Comput. Molec. Sci. 2012 2(1), 73-78
     doi.org/10.1002/wcms.81
  2. Neese, F.
     Software update: the ORCA program system, version 4.0
     WIRES Comput. Molec. Sci. 2018 8(1), 1-6
     doi.org/10.1002/wcms.1327
  3. Neese, F.; Wennmohs, F.; Becker, U.; Riplinger, C.
     The ORCA quantum chemistry program package
     J. Chem. Phys. 2020 152(22), 224108
     doi.org/10.1063/5.0004608
  4. Neese, F.
     Software update: The ORCA program system—Version 5.0
     WIRES Comput. Molec. Sci. 2022 12(1), e1606
     doi.org/10.1002/wcms.1606

List of optional additional citations

  1. Neese, F.
     Approximate second-order SCF convergence for spin unrestricted wavefunctions
     Chem. Phys. Lett. 2000 325(1-3), 93-98
     doi.org/10.1016/s0009-2614(00)00662-x

Timings for individual modules:

Sum of individual times          ...      613.182 sec (=  10.220 min)
Startup calculation              ...       30.605 sec (=   0.510 min)   5.0 %
SCF iterations                   ...      481.353 sec (=   8.023 min)  78.5 %
SCF Gradient evaluation          ...       99.666 sec (=   1.661 min)  16.3 %
Geometry relaxation              ...        1.558 sec (=   0.026 min)   0.3 %
                             ****ORCA TERMINATED NORMALLY****
TOTAL RUN TIME: 0 days 0 hours 10 minutes 28 seconds 794 msec
