
                                 *****************
                                 * O   R   C   A *
                                 *****************

                                            #,                                       
                                            ###                                      
                                            ####                                     
                                            #####                                    
                                            ######                                   
                                           ########,                                 
                                     ,,################,,,,,                         
                               ,,#################################,,                 
                          ,,##########################################,,             
                       ,#########################################, ''#####,          
                    ,#############################################,,   '####,        
                  ,##################################################,,,,####,       
                ,###########''''           ''''###############################       
              ,#####''   ,,,,##########,,,,          '''####'''          '####       
            ,##' ,,,,###########################,,,                        '##       
           ' ,,###''''                  '''############,,,                           
         ,,##''                                '''############,,,,        ,,,,,,###''
      ,#''                                            '''#######################'''  
     '                                                          ''''####''''         
             ,#######,   #######,   ,#######,      ##                                
            ,#'     '#,  ##    ##  ,#'     '#,    #''#        ,####,    ,#,          
            ##       ##  ##   ,#'  ##            #'  '#       #'       ,# #          
            ##       ##  #######   ##           ,######,      #####,      #          
            '#,     ,#'  ##    ##  '#,     ,#' ,#      #,     #,   #      #          
             '#######'   ##     ##  '#######'  #'      '#     '####' #    #          



                #########################################################
                #                        -***-                          #
                #          Department of theory and spectroscopy        #
                #                                                       #
                #                      Frank Neese                      #
                #                                                       #
                #     Directorship, Architecture, Infrastructure        #
                #                    SHARK, DRIVERS                     #
                #        Core code/Algorithms in most modules           #
                #                                                       #
                #        Max Planck Institute fuer Kohlenforschung      #
                #                Kaiser Wilhelm Platz 1                 #
                #                 D-45470 Muelheim/Ruhr                 #
                #                      Germany                          #
                #                                                       #
                #                  All rights reserved                  #
                #                        -***-                          #
                #########################################################


                         Program Version 6.1.1  -  RELEASE   -


 With contributions from (in alphabetic order):
[Max-Planck-Institut fuer Kohlenforschung]                               
  Daniel Aravena         : Magnetic Suceptibility                        
  Michael Atanasov       : Ab Initio Ligand Field Theory (pilot matlab implementation)
  Alexander A. Auer      : GIAO ZORA, VPT2 properties, NMR spectrum      
  Ute Becker             : All parallelization in ORCA, NUMFREQ, NUMCALC 
  Giovanni Bistoni       : ED, misc. LED, open-shell LED, HFLD           
  Dmytro Bykov           : pre 5.0 version of the SCF Hessian            
  Marcos Casanova-Páez   : Triplet and SCS-CIS(D). UHF-(DLPNO)-IP/EA/STEOM-CCSD. UHF-CVS-IP/STEOM-CCSD   
  Vijay G. Chilkuri      : MRCI spin determinant printing, contributions to CSF-ICE 
  Pauline Colinet        : FMM embedding                                 
  Dipayan Datta          : RHF DLPNO-CCSD density                        
  Achintya Kumar Dutta   : EOM-CC, STEOM-CC                              
  Nicolas Foglia         : Exact transition moments, OPA infrastructure, MCD improvements    
  Dmitry Ganyushin       : Spin-Orbit,Spin-Spin,Magnetic field MRCI      
  Miquel Garcia-Rates    : C-PCM and meta-GGA Hessian, CCSD/C-PCM, Gaussian charge scheme 
  Tiago L. C. Gouveia    : GS-ROHF, GS-ROCIS                             
  Yang Guo               : DLPNO-NEVPT2, F12-NEVPT2, CIM, IAO-localization        
  Andreas Hansen         : Spin unrestricted coupled pair/coupled cluster methods 
  Ingolf Harden          : AUTO-CI MPn and infrastructure                
  Benjamin Helmich-Paris : MC-RPA, TRAH-(SCF,CASSCF), AVAS, COSX integrals, SCF dyn. polar., MC-PDFT, srDFT 
  Lee Huntington         : MR-EOM, pCC                                   
  Robert Izsak           : Overlap fitted RIJCOSX, COSX-SCS-MP3, EOM     
  Riya Kayal             : Wick's Theorem for AUTO-CI, AUTO-CI UHF-CCSDT 
  Emily Kempfer          : AUTO-CI RHF CISDT and CCSDT, approximate NEVPT4
  Christian Kollmar      : KDIIS, OOCD, Brueckner-CCSD(T), CCSD density, CASPT2, CASPT2-K, improved NEVPT2 
  Axel Koslowski         : Symmetry handling                             
  Simone Kossmann        : meta-GGA functionals, TD-DFT gradient, OOMP2, (MP2 Hessian; deprecated post 5.0) 
  Lucas Lang             : DCDCAS, Hyperfine gauge corrections, ICE-SOC+SSC
  Marvin Lechner         : AUTO-CI (C++ implementation), FIC-MRCC        
  Spencer Leger          : CASSCF response                               
  Dagmar Lenk            : GEPOL surface, SMD, ORCA-2-JSON               
  Dimitrios Liakos       : Extrapolation schemes; Compound Job, Property file
  Dimitrios Manganas     : Further ROCIS development; embedding schemes. LFT, Crystal Embedding 
  Dimitrios Pantazis     : SARC Basis sets                               
  Anastasios Papadopoulos: AUTO-CI, single reference methods and gradients 
  Taras Petrenko         : pre 6.0 DFT Hessian and TD-DFT gradient,  ECA, NRVS 
  Petra Pikulova         : Analytic Raman intensities                    
  Peter Pinski           : DLPNO-MP2, DLPNO-MP2 Gradient                 
  Shashank Vittal Rao    : ES-AILFT, MagRelax                            
  Christoph Reimann      : Effective Core Potentials                     
  Marius Retegan         : Local ZFS, SOC                                
  Christoph Riplinger    : Optimizer, TS searches, QM/MM, DLPNO-CCSD(T), (RO)-DLPNO pert. Triples 
  Michael Roemelt        : Original ROCIS implementation, recursive CI coupling coefficients
  Masaaki Saitow         : Open-shell DLPNO-CCSD energy and density      
  Barbara Sandhoefer     : DKH picture change effects                    
  Yorick L. A. Schmerwitz: GMF and freeze-and-release deltaSCF, NEB S-IDPP initial path                    
  Kantharuban Sivalingam : CASSCF convergence/infrastructure, NEVPT2, NEVPT3, NEVPT4(SD), FIC-MRCI and CEPA variants
  Bernardo de Souza      : ESD, SOC TD-DFT                               
  Georgi L. Stoychev     : AutoAux, RI-MP2 NMR, DLPNO-MP2 response, X2C  
  Van Anh Tran           : RI-MP2 g-tensors                              
  Willem Van den Heuvel  : Paramagnetic NMR                              
  Zikuan Wang            : NOTCH, Electric field optimization            
  Frank Wennmohs         : Technical directorship and infrastructure     
  Hang Xu                : AUTO-CI-Response properties                   
                                                                         
[FACCTs GmbH]                                                            
  Markus Bursch, Nicolas Foglia, Miquel Garcia-Rates, Ingolf Harden, Hagen Neugebauer, Anastasios Papadopoulos, 
  Christoph Riplinger, Bernardo de Souza, Georgi L. Stoychev                                                    
                                                                 
  APM, various basis sets, CI-OPT, improved COSX, DLPNO-Multilevel,           
  DOCKER, DRACO, updates on ESD, Fragmentator, GOAT, IRC, LR-CPCM, L-BFGS, MBIS, meta-GGA TD-DFT gradient, ML-optimized integration grids, 
  MM, NACMEs, nearIR, NEB, NEB-TS, NL-DFT gradient (VV10), 2- and 3-layer-ONIOM, interface openCOSMO-RS, QMMM,   
  Crystal-QMMM, RESP, rigid body optimization, SF, symmetry and pop. for TD-DFT, various functionals, SOLVATOR                                   
                                                                         
[Other institutions]                                                     
  V. Asgeirsson          : NEB                                           
  Christoph Bannwarth    : sTDA-DFT, sTD-DFT, PBEh-3c, B97-3c, D3        
  Giovanni Bistoni       : ETS/NOCV, ADLD/ADEX, COVALED                  
  Martin Brehm           : Molecular dynamics                            
  Ronald Cardenas        : ETS/NOCV                                      
  Martina Colucci        : COVALED                                       
  Sebastian Ehlert       : rSCAN, r2SCAN, r2SCAN-3c, D4, dhf basis sets  
  Marvin Friede          : D4 for Fr, Ra, Ac-Lr                          
  Lars Goerigk           : TD-DFT with DH, B97 family of functionals     
  Stefan Grimme          : VdW corrections, initial TS optimization, DFT functionals, gCP, sTDA/sTD-DF 
  Waldemar Hujo          : DFT-NL                                        
  H. Jonsson             : NEB                                           
  Holger Kruse           : gCP                                           
  Marcel Mueller         : wB97X-3c, vDZP basis set                      
  Hagen Neugebauer       : wr2SCAN, Native XTB                           
  Gianluca Regni         : ADLD/ADEX                                     
  Tobias Risthaus        : pre 6.0 range-separated hybrid DFT and stability analysis
  Lukas Wittmann         : regularized MP2, r2SCAN double-hybrids, wr2SCAN        
                                                                         
We gratefully acknowledge several colleagues who have allowed us to      
interface, adapt or use parts of their codes:                            
  Ed Valeev, F. Pavosevic, A. Kumar             : LibInt (2-el integral package), F12 methods 
  Garnet Chan, S. Sharma, J. Yang, R. Olivares  : DMRG                   
  Ulf Ekstrom                                   : XCFun DFT Library      
  Mihaly Kallay                                 : mrcc  (arbitrary order and MRCC methods)
  Frank Weinhold                                : gennbo (NPA and NBO analysis)           
  Simon Mueller                                 : openCOSMO-RS                            
  Christopher J. Cramer and Donald G. Truhlar   : smd solvation model                     
  S Lehtola, MJT Oliveira, MAL Marques          : LibXC Library                           
  Liviu Ungur et al                             : ANISO software                          


 Your calculation uses the libint2 library for the computation of 2-el integrals
 For citations please refer to: http://libint.valeyev.net

 Your ORCA version has been built with support for libXC version: 7.0.0
 For citations please refer to: https://libxc.gitlab.io

 This ORCA versions uses:
   CBLAS   interface :  Fast vector & matrix operations
   LAPACKE interface :  Fast linear algebra routines
   Shared memory     :  Shared parallel matrices


  ***********************************
  * Starting time: Mon Mar 30 20:02:59 2026
  * Host name:     DESKTOP-E59RH2R
  * Process ID:    92940
  * Working dir.:  C:\Users\gnome\Desktop\Vitya_Diplom\Vitya_DiplomB12\08_casscf_nevpt2\b12_hexagonal_prism\mult_1\casscf
  ***********************************

NOTE: MaxCore=1800 MB was set to SCF,MP2,MDCI,CIPSI,MRCI,RASCI and CIS
      => If you want to overwrite this, your respective input block should be placed after the MaxCore statement
================================================================================

----- Orbital basis set information -----
Your calculation utilizes the basis: def2-TZVPP
   F. Weigend and R. Ahlrichs, Phys. Chem. Chem. Phys. 7, 3297 (2005).

================================================================================
                                        WARNINGS
                       Please study these warnings very carefully!
================================================================================


================================================================================
                                       INPUT FILE
================================================================================
NAME = b12_hexagonal_prism_m1_casscf.inp
|  1> !def2-tzvpp
|  2> !sp
|  3> !tightscf
|  4> 
|  5> %output
|  6>     jsonpropfile true
|  7>     jsongbwfile true
|  8> end
|  9> 
| 10> %casscf
| 11>     nel 12
| 12>     norb 12
| 13>     mult 1
| 14>     nroots 1
| 15>     printlevel 3
| 16>     maxiter 200
| 17> end
| 18> 
| 19> %maxcore 1800
| 20> %pal
| 21>   nprocs 6
| 22> end
| 23> 
| 24> * xyz 0 1
| 25> B             1.9301996024580399             0.5863756100549200             0.5914869941246500
| 26> B             0.5793009173024000             1.0891256384135299             1.0906522757569499
| 27> B            -0.9802515399658500             0.7802218754564600             0.7776110567997300
| 28> B            -1.9296762559171501            -0.5862157376614801             0.5925268712397200
| 29> B            -0.5785159118419100            -1.0889884976686901             1.0913572253643000
| 30> B             0.9807590209072700            -0.7801643868435000             0.7767253987831100
| 31> B             1.9258864733159200            -0.5983167664020400            -0.5926512068307001
| 32> B             0.9848940629915101             0.7739519743266600            -0.7770073049671500
| 33> B            -0.5727248782637900             1.0921657197385599            -1.0913361649405000
| 34> B            -1.9264768994946000             0.5984055665238700            -0.5914298300749600
| 35> B            -0.9853007682228200            -0.7741334981562100            -0.7763883161752800
| 36> B             0.5719061767309900            -1.0924274977820601            -1.0915469990798801
| 37> *
| 38> 
| 39>                          ****END OF INPUT****
================================================================================

                       ****************************
                       * Single Point Calculation *
                       ****************************

---------------------------------
CARTESIAN COORDINATES (ANGSTROEM)
---------------------------------
  B      1.930200    0.586376    0.591487
  B      0.579301    1.089126    1.090652
  B     -0.980252    0.780222    0.777611
  B     -1.929676   -0.586216    0.592527
  B     -0.578516   -1.088988    1.091357
  B      0.980759   -0.780164    0.776725
  B      1.925886   -0.598317   -0.592651
  B      0.984894    0.773952   -0.777007
  B     -0.572725    1.092166   -1.091336
  B     -1.926477    0.598406   -0.591430
  B     -0.985301   -0.774133   -0.776388
  B      0.571906   -1.092427   -1.091547

----------------------------
CARTESIAN COORDINATES (A.U.)
----------------------------
  NO LB      ZA    FRAG     MASS         X           Y           Z
   0 B     5.0000    0    10.810    3.647549    1.108089    1.117748
   1 B     5.0000    0    10.810    1.094720    2.058149    2.061034
   2 B     5.0000    0    10.810   -1.852407    1.474406    1.469472
   3 B     5.0000    0    10.810   -3.646560   -1.107787    1.119714
   4 B     5.0000    0    10.810   -1.093237   -2.057890    2.062366
   5 B     5.0000    0    10.810    1.853366   -1.474297    1.467798
   6 B     5.0000    0    10.810    3.639398   -1.130655   -1.119948
   7 B     5.0000    0    10.810    1.861180    1.462557   -1.468331
   8 B     5.0000    0    10.810   -1.082293    2.063894   -2.062326
   9 B     5.0000    0    10.810   -3.640514    1.130823   -1.117640
  10 B     5.0000    0    10.810   -1.861949   -1.462900   -1.467161
  11 B     5.0000    0    10.810    1.080746   -2.064389   -2.062725

--------------------------------
INTERNAL COORDINATES (ANGSTROEM)
--------------------------------
 B      0   0   0     0.000000000000     0.00000000     0.00000000
 B      1   0   0     1.525401857530     0.00000000     0.00000000
 B      2   1   0     1.620376563181   136.57785925     0.00000000
 B      3   2   1     1.674161042895   136.28379418    46.34703246
 B      4   3   2     1.525531528944    74.36911927     8.59695996
 B      5   4   3     1.620402367816   136.55076574   316.97861477
 B      6   5   4     1.673776193629   136.29685118   313.66006702
 B      1   2   3     1.673787352690    74.36258873    42.96425139
 B      8   1   2     1.620567612332   136.33775622   351.44271197
 B      9   8   1     1.525237675750   136.54813823   313.71752188
 B      4   3   2     1.673644806045    82.07196168   292.68413329
 B      7   6   5     1.525222957449    74.40372720   351.45947592

---------------------------
INTERNAL COORDINATES (A.U.)
---------------------------
 B      0   0   0     0.000000000000     0.00000000     0.00000000
 B      1   0   0     2.882591754907     0.00000000     0.00000000
 B      2   1   0     3.062067938237   136.57785925     0.00000000
 B      3   2   1     3.163705875151   136.28379418    46.34703246
 B      4   3   2     2.882836798367    74.36911927     8.59695996
 B      5   4   3     3.062116701930   136.55076574   316.97861477
 B      6   5   4     3.162978615436   136.29685118   313.66006702
 B      1   2   3     3.162999703006    74.36258873    42.96425139
 B      8   1   2     3.062428968810   136.33775622   351.44271197
 B      9   8   1     2.882281496306   136.54813823   313.71752188
 B      4   3   2     3.162730328886    82.07196168   292.68413329
 B      7   6   5     2.882253682748    74.40372720   351.45947592

---------------------
BASIS SET INFORMATION
---------------------
There are 1 groups of distinct atoms

 Group   1 Type B   : 11s6p2d1f contracted to 5s3p2d1f pattern {62111/411/11/1}

Atom   0B    basis set group =>   1
Atom   1B    basis set group =>   1
Atom   2B    basis set group =>   1
Atom   3B    basis set group =>   1
Atom   4B    basis set group =>   1
Atom   5B    basis set group =>   1
Atom   6B    basis set group =>   1
Atom   7B    basis set group =>   1
Atom   8B    basis set group =>   1
Atom   9B    basis set group =>   1
Atom  10B    basis set group =>   1
Atom  11B    basis set group =>   1


           ************************************************************
           *        Program running with 6 parallel MPI-processes     *
           *              working on a common directory               *
           ************************************************************
------------------------------------------------------------------------------
                             ORCA STARTUP CALCULATIONS
------------------------------------------------------------------------------
------------------------------------------------------------------------------
                   ___                                                        
                  /   \      - P O W E R E D   B Y -                         
                 /     \                                                     
                 |  |  |   _    _      __       _____    __    __             
                 |  |  |  | |  | |    /  \     |  _  \  |  |  /  |          
                  \  \/   | |  | |   /    \    | | | |  |  | /  /          
                 / \  \   | |__| |  /  /\  \   | |_| |  |  |/  /          
                |  |  |   |  __  | /  /__\  \  |    /   |      \           
                |  |  |   | |  | | |   __   |  |    \   |  |\   \          
                \     /   | |  | | |  |  |  |  | |\  \  |  | \   \       
                 \___/    |_|  |_| |__|  |__|  |_| \__\ |__|  \__/        
                                                                              
                      - O R C A' S   B I G   F R I E N D -                    
                                      &                                       
                       - I N T E G R A L  F E E D E R -                       
                                                                              
 v1 FN, 2020, v2 2021, v3 2022-2024                                           
------------------------------------------------------------------------------


----------------------
SHARK INTEGRAL PACKAGE
----------------------

Number of atoms                             ...     12
Number of basis functions                   ...    372
Number of shells                            ...    132
Maximum angular momentum                    ...      3
Integral batch strategy                     ... SHARK/LIBINT Hybrid
RI-J (if used) integral strategy            ... SPLIT-RIJ (Revised 2003 algorithm where possible)
Printlevel                                  ...      1
Contraction scheme used                     ... SEGMENTED contraction
Prescreening option                         ... SCHWARTZ
   Thresh                                   ... 2.500e-11
   Tcut                                     ... 2.500e-12
   Tpresel                                  ... 2.500e-12 
Coulomb Range Separation                    ... NOT USED
Exchange Range Separation                   ... NOT USED
Multipole approximations                    ... NOT USED
Finite Nucleus Model                        ... NOT USED
CABS basis                                  ... NOT available
Auxiliary Coulomb fitting basis             ... NOT available
Auxiliary J/K fitting basis                 ... NOT available
Auxiliary Correlation fitting basis         ... NOT available
Auxiliary 'external' fitting basis          ... NOT available

Checking pre-screening integrals            ... done (  0.0 sec) Dimension = 132
   => SHARK Basis and OBASIS are compatible. Storing Pre-screening
Shell pair information
Shell pair cut-off parameter TPreSel        ...   2.5e-12
Total number of shell pairs                 ...      8778
Shell pairs after pre-screening             ...      8594
Total number of primitive shell pairs       ...     29184
Primitive shell pairs kept                  ...     22484
          la=0 lb=0:   1662 shell pairs
          la=1 lb=0:   2152 shell pairs
          la=1 lb=1:    666 shell pairs
          la=2 lb=0:   1432 shell pairs
          la=2 lb=1:    864 shell pairs
          la=2 lb=2:    300 shell pairs
          la=3 lb=0:    720 shell pairs
          la=3 lb=1:    432 shell pairs
          la=3 lb=2:    288 shell pairs
          la=3 lb=3:     78 shell pairs

Checking whether 4 symmetric matrices of dimension 372 fit in memory
:Max Core in MB      =   1800.00
 MB in use           =     11.21
 MB left             =   1788.79
 MB needed           =      2.12
 Data fit in memory  = YES
Calculating Nuclear repulsion               ... done (  0.0 sec) ENN=    381.731248161400 Eh

Diagonalization of the overlap matrix:
Smallest eigenvalue                        ... 1.211e-06
Time for diagonalization                   ...    0.017 sec
Threshold for overlap eigenvalues          ... 1.000e-07
Number of eigenvalues below threshold      ... 0
Time for construction of square roots      ...    0.007 sec
Total time needed                          ...    0.026 sec

-------------------
DFT GRID GENERATION
-------------------

General Integration Accuracy     IntAcc      ... 4.388
Radial Grid Type                 RadialGrid  ... OptM3 with GC (2021)
Angular Grid (max. ang.)         AngularGrid ... 4 (Lebedev-302)
Angular grid pruning method      GridPruning ... 4 (adaptive)
Weight generation scheme         WeightScheme... mBecke (2022)
Basis function cutoff            BFCut       ... 1.0000e-11
Integration weight cutoff        WCut        ... 1.0000e-14
Partially contracted basis set               ... off
Rotationally invariant grid construction     ... off
Angular grids for H and He will be reduced by one unit

Total number of grid points                  ...    69970
Total number of batches                      ...     1100
Average number of points per batch           ...       63
Average number of grid points per atom       ...     5831
Grids setup in   0.3 sec
Initializing property integral containers    ... done (  0.0 sec)

SHARK setup successfully completed in   0.6 seconds

Maximum memory used throughout the entire STARTUP-calculation: 27.4 MB


           ************************************************************
           *        Program running with 6 parallel MPI-processes     *
           *              working on a common directory               *
           ************************************************************
-------------------------------------------------------------------------------
                                 ORCA GUESS
                   Start orbitals & Density for SCF / CASSCF
-------------------------------------------------------------------------------

------------
SCF SETTINGS
------------
Hamiltonian:
 Ab initio Hamiltonian  Method          .... Hartree-Fock(GTOs)


General Settings:
 Integral files         IntName         .... b12_hexagonal_prism_m1_casscf
 Hartree-Fock type      HFTyp           .... CASSCF
 Total Charge           Charge          ....    0
 Multiplicity           Mult            ....    1
 Number of Electrons    NEL             ....   60
 Basis Dimension        Dim             ....  372
 Nuclear Repulsion      ENuc            ....    381.7312481614 Eh

------------------------------
INITIAL GUESS: MODEL POTENTIAL
------------------------------
Loading Hartree-Fock densities                     ... done
Calculating cut-offs                               ... done
Initializing the effective Hamiltonian             ... done
Setting up the integral package (SHARK)            ... done
Starting the Coulomb interaction                   ... done (   0.1 sec)
Making the grid                                    ... done (   0.1 sec)
Mapping shells                                     ... done
Starting the XC term evaluation                    ... done (   0.1 sec)
Transforming the Hamiltonian                       ... done (   0.0 sec)
Diagonalizing the Hamiltonian                      ... done (   0.0 sec)
Back transforming the eigenvectors                 ... done (   0.0 sec)
Now organizing SCF variables                       ... done
                      ------------------
                      INITIAL GUESS DONE (   0.3 sec)
                      ------------------
             **** ENERGY FILE WAS UPDATED (b12_hexagonal_prism_m1_casscf.en.tmp) ****
Finished Guess after   0.3 sec
Maximum memory used throughout the entire GUESS-calculation: 20.2 MB


           ************************************************************
           *        Program running with 6 parallel MPI-processes     *
           *              working on a common directory               *
           ************************************************************
-------------------------------------------------------------------------------
                              ORCA-CASSCF
-------------------------------------------------------------------------------

Building the CAS space              ... done (73789 configurations for Mult=1)
----------------
GENERAL CI SETUP
----------------

Checking configurations                         ... done
Determining NSOMO,NDOMO and NVMO                ... done
Building up the tree                            ... done
Building N-1 electron tree                      ... done
Building RI configuration space                 ... done
Analyzing the RI configuration space            ... done
Determining NDOMO,NSOMO,NVMO for RI space       ... done
Determination of address arrays                 ... done
Looking for max. no of open shells              ... done
Setting up coupling coefficient container       ... Memory for address arrays  		      ... done
Make address arrays			      ... done
Memory for buffers 			      ... done
Setting up spin-function prototypes	      ... (MAXOPEN=12) 0 2 4 6 8 10 12 14 done
Trivial cases - DOMO's			      ... done (  0.2 MB)
Number of open shells			    ...  0
domo->virtual excitations			... done (  0.2 MB)
domo->somo excitations				... done (  0.2 MB)
somo->virtual excitations			... done (  0.2 MB)
somo->somo excitations				... done (  0.2 MB)
Number of open shells			    ...  2
domo->virtual excitations			... done (  0.2 MB)
domo->somo excitations				... done (  0.2 MB)
somo->virtual excitations			... done (  0.2 MB)
somo->somo excitations				... done (  0.2 MB)
Number of open shells			    ...  4
domo->virtual excitations			... done (  0.2 MB)
domo->somo excitations				... done (  0.2 MB)
somo->virtual excitations			... done (  0.2 MB)
somo->somo excitations				... done (  0.2 MB)
Number of open shells			    ...  6
domo->virtual excitations			... done (  0.2 MB)
domo->somo excitations				... done (  0.2 MB)
somo->virtual excitations			... done (  0.2 MB)
somo->somo excitations				... done (  0.2 MB)
Number of open shells			    ...  8
domo->virtual excitations			... done (  0.3 MB)
domo->somo excitations				... done (  0.3 MB)
somo->virtual excitations			... done (  0.3 MB)
somo->somo excitations				... done (  0.3 MB)
Number of open shells			    ... 10
domo->virtual excitations			... done (  1.2 MB)
domo->somo excitations				... done (  1.4 MB)
somo->virtual excitations			... done (  1.7 MB)
somo->somo excitations				... done (  1.8 MB)
Number of open shells			    ... 12
domo->virtual excitations			... done ( 14.3 MB)
domo->somo excitations				... done ( 17.8 MB)
somo->virtual excitations			... done ( 21.2 MB)
somo->somo excitations				... done ( 22.4 MB)
Coupling container construction done
done
Now recording sub-block dimensions              ... done

Memory used for TGeneralCI arrays =    22.2 MB
  Original space  =     0.7 MB
  RI       space  =     0.7 MB
  Address arrays  =     2.2 MB
  Coupling coeffs =    18.7 MB
Multiplicity                          ...       1
# of electrons                        ...      12
# of orbitals                         ...      12
# of roots requested                  ...       1
Configuration space:
# of configurations                   ...   73789
# of CSF's                            ...  226512
# of rejected configurations          ...       0
Min. # of SOMOs                       ...       0
Max. # of SOMOs                       ...      12
Max. # of DOMOs                       ...       6
Max. # of VMOs                        ...       6
RI Configuration space:
# of configurations                   ...   73789
# of CSF's                            ...  226512
# of rejected configurations          ...       0
Min. # of SOMOs                       ...       0
Max. # of SOMOs                       ...      12
Max. # of DOMOs                       ...       6
Max. # of VMOs                        ...       6
(N-1) Electron Configuration space:
# of configurations                   ...   69576
CSF dimensions:
      0 SOMOs give     1 CSFs
      2 SOMOs give     1 CSFs
      4 SOMOs give     2 CSFs
      6 SOMOs give     5 CSFs
      8 SOMOs give    14 CSFs
     10 SOMOs give    42 CSFs
     12 SOMOs give   132 CSFs


SYSTEM-SPECIFIC SETTINGS:
Number of active electrons          ...   12
Number of active orbitals           ...   12
Total number of electrons           ...   60
Total number of orbitals            ...  372

Determined orbital ranges:
   Internal       0 -   23 (  24 orbitals)
   Active        24 -   35 (  12 orbitals)
   External      36 -  371 ( 336 orbitals)
Number of rotation parameters      ...  12384

CI-STEP:
CI strategy                         ... General CI
Number of multiplicity blocks       ...    1
BLOCK  0 WEIGHT=   1.0000
  Multiplicity                      ...    1
  #(Configurations)                 ... 73789
  #(CSFs)                           ... 226512
  #(Roots)                          ...    1
    ROOT=0 WEIGHT=    1.000000

  PrintLevel                        ...    1
  N(GuessMat)                       ...      2048
  MaxDim(CI)                        ...        10
  MaxIter(CI)                       ...        64
  Energy Tolerance CI               ...  2.50e-09
  Residual Tolerance CI             ...  2.50e-09
  Shift(CI)                         ...  1.00e-04

INTEGRAL-TRANSFORMATION-STEP:
  Algorithm                         ... EXACT

ORBITAL-IMPROVEMENT-STEP:
  Algorithm                         ... SuperCI(PT)
  Default Parametrization           ... CAYLEY
  Act-Act rotations                 ... depends on algorithm used

  Note: SuperCI(PT) will ignore FreezeIE, FreezeAct and FreezeGrad. In general Default settings are encouraged.
        In conjunction with ShiftUp, ShiftDn or GradScaling the performance of SuperCI(PT) is less optimal.  

  MaxRot                            ... 2.00e-01 
  Max. no of vectors (DIIS)         ... 15
  DThresh (cut-off) metric          ... 1.00e-06
  Switch step at gradient           ...  3.00e-02 
  Switch step at iteration          ...        50   
  Switch step to                    ... SuperCI(PT)    

SCF-SETTINGS:
  Incremental                       ... on
  RIJCOSX approximation             ... off
  RI-JK approximation               ... off
  AO integral handling              ... DIRECT
  Integral Neglect Thresh           ...  2.50e-11
  Primitive cutoff TCut             ...  2.50e-12
  Energy convergence tolerance      ...  2.50e-08
  Orbital gradient convergence      ...  2.50e-04
  Max. number of iterations         ...       200  


FINAL ORBITALS:
  Active   Orbitals                 ... natural 
  Internal Orbitals                 ... canonical 
  External Orbitals                 ... canonical 

------------------
CAS-SCF ITERATIONS
------------------


MACRO-ITERATION   1: 
   --- Inactive Energy E0 = -278.41031124 Eh
CI-ITERATION   0: 
  -295.205001832   0.111518745334 (    0.21)
CI-ITERATION   1: 
  -295.221227843   0.046087068610 (    0.22)
CI-ITERATION   2: 
  -295.224081981   0.018338042329 (    0.31)
CI-ITERATION   3: 
  -295.224396822   0.007277995837 (    0.20)
CI-ITERATION   4: 
  -295.224443834   0.002962422807 (    0.22)
CI-ITERATION   5: 
  -295.224450983   0.001142585885 (    0.20)
CI-ITERATION   6: 
  -295.224452118   0.000445180663 (    0.28)
CI-ITERATION   7: 
  -295.224452286   0.000184769849 (    0.26)
CI-ITERATION   8: 
  -295.224452312   0.000080063036 (    0.27)
CI-ITERATION   9: 
  -295.224452317   0.000031522760 (    0.26)
   CI-PROBLEM SOLVED
   DENSITIES MADE

                 <<<<<<<<<<<<<<<<<<INITIAL CI STATE CHECK>>>>>>>>>>>>>>>>>>

BLOCK  0 MULT= 1 NROOTS= 1 
ROOT   0:  E=    -295.2244523165 Eh
      0.70441 [     0]: 222222000000
      0.04259 [  1557]: 221222000100
      0.03833 [ 24071]: 122222000100
      0.01384 [  6765]: 212222100000
      0.01312 [  3858]: 220222200000
      0.01026 [    29]: 222212010000
      0.01025 [     3]: 222221001000
      0.00632 [  1561]: 221221110000
      0.00631 [  1633]: 221212101000
      0.00618 [     6]: 222221000001
      0.00614 [    32]: 222212000010
      0.00534 [     2]: 222221010000
      0.00532 [    30]: 222212001000
      0.00528 [  1564]: 221221100010
      0.00527 [  1636]: 221212100001
      0.00425 [  1632]: 221212110000
      0.00425 [  1562]: 221221101000
      0.00362 [     7]: 222220200000
      0.00362 [   105]: 222202200000
      0.00339 [  1635]: 221212100010
      0.00339 [  1565]: 221221100001
      0.00337 [    33]: 222212000001
      0.00332 [     5]: 222221000010
      0.00282 [  6773]: 212221101000
      0.00282 [  6843]: 212212110000

                 <<<<<<<<<<<<<<<<<<INITIAL CI STATE CHECK>>>>>>>>>>>>>>>>>>

   E(CAS)=  -295.224452317 Eh DE=    0.000000e+00
   --- Energy gap subspaces: Ext-Act = -0.029   Act-Int = -0.063
   N(occ)=  1.94455 1.94761 1.83938 1.99318 1.89733 1.89729 0.14332 0.06711 0.06711 0.10425 0.04941 0.04946
   ||g|| =     3.379388e+00 Max(G)=   -4.380372e-01 Rot=30,16
   --- Orbital Update [SuperCI(PT)]
   --- Canonicalize Internal Space
   --- Canonicalize External Space
   --- SX_PT (Skipped TA=0 IT=0): ||X|| =      1.233454939 Max(X)(25,16) =     -0.257825271 
   --- SFit(Active Orbitals)

MACRO-ITERATION   2: 
   --- Inactive Energy E0 = -276.60534850 Eh
CI-ITERATION   0: 
  -295.625813569   0.085087024517 (    0.18)
CI-ITERATION   1: 
  -295.634034151   0.028122727055 (    0.19)
CI-ITERATION   2: 
  -295.635018873   0.010242277391 (    0.20)
CI-ITERATION   3: 
  -295.635103587   0.003950579766 (    0.20)
CI-ITERATION   4: 
  -295.635115556   0.001396287490 (    0.29)
CI-ITERATION   5: 
  -295.635117082   0.000472392003 (    0.28)
CI-ITERATION   6: 
  -295.635117252   0.000163926309 (    0.26)
CI-ITERATION   7: 
  -295.635117272   0.000056651362 (    0.18)
CI-ITERATION   8: 
  -295.635117274   0.000022009951 (    0.26)
   CI-PROBLEM SOLVED
   DENSITIES MADE
   E(CAS)=  -295.635117274 Eh DE=   -4.106650e-01
   --- Energy gap subspaces: Ext-Act = -0.021   Act-Int = -0.037
   N(occ)=  1.98991 1.96361 1.90158 1.99562 1.90767 1.90763 0.11452 0.05333 0.05337 0.03107 0.04087 0.04082
   ||g|| =     1.901024e+00 Max(G)=   -3.447412e-01 Rot=46,20
   --- Orbital Update [SuperCI(PT)]
   --- Canonicalize Internal Space
   --- Canonicalize External Space
   --- SX_PT (Skipped TA=0 IT=0): ||X|| =      0.817169733 Max(X)(39,33) =      0.356509930 
   --- SFit(Active Orbitals)

MACRO-ITERATION   3: 
   --- Inactive Energy E0 = -277.59389994 Eh
CI-ITERATION   0: 
  -295.882885355   0.103438411036 (    0.28)
CI-ITERATION   1: 
  -295.894161291   0.039796408419 (    0.21)
CI-ITERATION   2: 
  -295.896100262   0.015281610069 (    0.18)
CI-ITERATION   3: 
  -295.896270767   0.005670817484 (    0.19)
CI-ITERATION   4: 
  -295.896294516   0.002149683395 (    0.23)
CI-ITERATION   5: 
  -295.896297677   0.000734536248 (    0.21)
CI-ITERATION   6: 
  -295.896298059   0.000293789403 (    0.25)
CI-ITERATION   7: 
  -295.896298118   0.000116352798 (    0.28)
CI-ITERATION   8: 
  -295.896298127   0.000044255735 (    0.19)
   CI-PROBLEM SOLVED
   DENSITIES MADE
   E(CAS)=  -295.896298127 Eh DE=   -2.611809e-01
   --- Energy gap subspaces: Ext-Act = -0.027   Act-Int = -0.055
   N(occ)=  1.97885 1.94826 1.87839 1.99553 1.88907 1.88903 0.12430 0.06431 0.06435 0.06007 0.05398 0.05388
   ||g|| =     2.896094e-01 Max(G)=    4.658714e-02 Rot=63,25
   --- Orbital Update [SuperCI(PT)]
   --- Canonicalize Internal Space
   --- Canonicalize External Space
   --- SX_PT (Skipped TA=0 IT=0): ||X|| =      0.493108531 Max(X)(39,33) =      0.238095971 
   --- SFit(Active Orbitals)

MACRO-ITERATION   4: 
   --- Inactive Energy E0 = -277.44238520 Eh
CI-ITERATION   0: 
  -295.895144532   0.113393360741 (    0.18)
CI-ITERATION   1: 
  -295.907707926   0.045368838311 (    0.17)
CI-ITERATION   2: 
  -295.910122372   0.018143959093 (    0.16)
CI-ITERATION   3: 
  -295.910342582   0.006978525220 (    0.21)
CI-ITERATION   4: 
  -295.910376986   0.002710242704 (    0.20)
CI-ITERATION   5: 
  -295.910381652   0.000924781418 (    0.24)
CI-ITERATION   6: 
  -295.910382206   0.000367845822 (    0.18)
CI-ITERATION   7: 
  -295.910382291   0.000141365995 (    0.18)
CI-ITERATION   8: 
  -295.910382304   0.000054206744 (    0.23)
CI-ITERATION   9: 
  -295.910382305   0.000021487724 (    0.17)
   CI-PROBLEM SOLVED
   DENSITIES MADE
   E(CAS)=  -295.910382305 Eh DE=   -1.408418e-02
   --- Energy gap subspaces: Ext-Act = -0.057   Act-Int = -0.067
   N(occ)=  1.97682 1.94582 1.87950 1.99458 1.87920 1.87915 0.12808 0.06439 0.06444 0.06960 0.05927 0.05915
   ||g|| =     1.683246e-01 Max(G)=    5.340351e-02 Rot=40,24
   --- Orbital Update [SuperCI(PT)]
   --- Canonicalize Internal Space
   --- Canonicalize External Space
   --- SX_PT (Skipped TA=0 IT=0): ||X|| =      0.356710591 Max(X)(39,33) =      0.191957593 
   --- SFit(Active Orbitals)

MACRO-ITERATION   5: 
   --- Inactive Energy E0 = -277.45624827 Eh
CI-ITERATION   0: 
  -295.898938392   0.119849886516 (    0.27)
CI-ITERATION   1: 
  -295.912855925   0.048593024635 (    0.29)
CI-ITERATION   2: 
  -295.915590008   0.019658586595 (    0.23)
CI-ITERATION   3: 
  -295.915845288   0.007476813209 (    0.23)
CI-ITERATION   4: 
  -295.915884165   0.002919339598 (    0.22)
CI-ITERATION   5: 
  -295.915889317   0.000993956017 (    0.31)
CI-ITERATION   6: 
  -295.915889933   0.000389817331 (    0.24)
CI-ITERATION   7: 
  -295.915890027   0.000148335608 (    0.23)
CI-ITERATION   8: 
  -295.915890040   0.000057077334 (    0.21)
CI-ITERATION   9: 
  -295.915890042   0.000022849994 (    0.25)
   CI-PROBLEM SOLVED
   DENSITIES MADE
   E(CAS)=  -295.915890042 Eh DE=   -5.507736e-03
   --- Energy gap subspaces: Ext-Act = -0.063   Act-Int = -0.081
   N(occ)=  1.97454 1.94228 1.87746 1.99394 1.87189 1.87184 0.13243 0.06644 0.06648 0.07808 0.06238 0.06225
   ||g|| =     8.899320e-02 Max(G)=    3.341339e-02 Rot=40,24
   --- Orbital Update [SuperCI(PT)]
   --- Canonicalize Internal Space
   --- Canonicalize External Space
   --- SX_PT (Skipped TA=0 IT=0): ||X|| =      0.285534629 Max(X)(39,33) =      0.146289508 
   --- SFit(Active Orbitals)

MACRO-ITERATION   6: 
   --- Inactive Energy E0 = -277.39951573 Eh
CI-ITERATION   0: 
  -295.904114867   0.131436064997 (    0.30)
CI-ITERATION   1: 
  -295.920302524   0.055136707060 (    0.30)
CI-ITERATION   2: 
  -295.923663501   0.022893237996 (    0.30)
CI-ITERATION   3: 
  -295.923992317   0.008779545467 (    0.32)
CI-ITERATION   4: 
  -295.924043072   0.003389646915 (    0.30)
CI-ITERATION   5: 
  -295.924049647   0.001117075958 (    0.29)
CI-ITERATION   6: 
  -295.924050393   0.000429569684 (    0.20)
CI-ITERATION   7: 
  -295.924050507   0.000168352171 (    0.23)
CI-ITERATION   8: 
  -295.924050523   0.000067714034 (    0.24)
CI-ITERATION   9: 
  -295.924050526   0.000026245769 (    0.21)
   CI-PROBLEM SOLVED
   DENSITIES MADE
   E(CAS)=  -295.924050526 Eh DE=   -8.160484e-03
   --- Energy gap subspaces: Ext-Act = -0.074   Act-Int = -0.115
   N(occ)=  1.96948 1.93534 1.88495 1.99248 1.85865 1.85866 0.13778 0.06795 0.06797 0.09217 0.06735 0.06721
   ||g|| =     5.198600e-02 Max(G)=    1.512072e-02 Rot=40,26
   --- Orbital Update [SuperCI(PT)]
   --- Canonicalize Internal Space
   --- Canonicalize External Space
   --- SX_PT (Skipped TA=0 IT=0): ||X|| =      0.129270791 Max(X)(25,23) =      0.071112046 
   --- SFit(Active Orbitals)

MACRO-ITERATION   7: 
   --- Inactive Energy E0 = -277.45256103 Eh
CI-ITERATION   0: 
  -295.905245667   0.130832634521 (    0.33)
CI-ITERATION   1: 
  -295.921352490   0.054530097145 (    0.29)
CI-ITERATION   2: 
  -295.924688077   0.022225837807 (    0.27)
CI-ITERATION   3: 
  -295.925000510   0.008551832667 (    0.33)
CI-ITERATION   4: 
  -295.925049291   0.003262707044 (    0.33)
CI-ITERATION   5: 
  -295.925055352   0.001103386690 (    0.31)
CI-ITERATION   6: 
  -295.925056082   0.000439801351 (    0.30)
CI-ITERATION   7: 
  -295.925056202   0.000174538462 (    0.27)
CI-ITERATION   8: 
  -295.925056220   0.000070805668 (    0.33)
CI-ITERATION   9: 
  -295.925056223   0.000028001431 (    0.27)
   CI-PROBLEM SOLVED
   DENSITIES MADE
   E(CAS)=  -295.925056223 Eh DE=   -1.005697e-03
   --- Energy gap subspaces: Ext-Act = -0.079   Act-Int = -0.102
   N(occ)=  1.96867 1.93503 1.88638 1.99222 1.85924 1.85931 0.13696 0.06766 0.06764 0.09222 0.06740 0.06726
   ||g|| =     2.778942e-02 Max(G)=    7.325716e-03 Rot=36,25
   --- Orbital Update [SuperCI(PT)]
   --- Canonicalize Internal Space
   --- Canonicalize External Space
   --- SX_PT (Skipped TA=0 IT=0): ||X|| =      0.127562751 Max(X)(25,23) =      0.055688096 
   --- SFit(Active Orbitals)

MACRO-ITERATION   8: 
   --- Inactive Energy E0 = -277.46339867 Eh
CI-ITERATION   0: 
  -295.906484984   0.135653788452 (    0.25)
CI-ITERATION   1: 
  -295.923500966   0.056851348518 (    0.17)
CI-ITERATION   2: 
  -295.926995591   0.023398940351 (    0.19)
CI-ITERATION   3: 
  -295.927333000   0.009006177506 (    0.17)
CI-ITERATION   4: 
  -295.927385599   0.003439605070 (    0.19)
CI-ITERATION   5: 
  -295.927392206   0.001161974279 (    0.17)
CI-ITERATION   6: 
  -295.927393001   0.000468470758 (    0.17)
CI-ITERATION   7: 
  -295.927393133   0.000191024707 (    0.19)
CI-ITERATION   8: 
  -295.927393154   0.000078099797 (    0.24)
CI-ITERATION   9: 
  -295.927393158   0.000030537203 (    0.23)
   CI-PROBLEM SOLVED
   DENSITIES MADE
   E(CAS)=  -295.927393158 Eh DE=   -2.336935e-03
   --- Energy gap subspaces: Ext-Act = -0.091   Act-Int = -0.096
   N(occ)=  1.96579 1.93245 1.89369 1.99142 1.85781 1.85825 0.13444 0.06719 0.06707 0.09524 0.06840 0.06824
   ||g|| =     2.265658e-02 Max(G)=   -6.514421e-03 Rot=40,26
   --- Orbital Update [SuperCI(PT)]
   --- Canonicalize Internal Space
   --- Canonicalize External Space
   --- SX_PT (Skipped TA=0 IT=0): ||X|| =      0.124152279 Max(X)(27,20) =      0.069560274 
   --- SFit(Active Orbitals)

MACRO-ITERATION   9: 
   --- Inactive Energy E0 = -277.46515678 Eh
CI-ITERATION   0: 
  -295.906378327   0.135659903685 (    0.18)
CI-ITERATION   1: 
  -295.923406704   0.056874039710 (    0.20)
CI-ITERATION   2: 
  -295.926906917   0.023407080406 (    0.18)
CI-ITERATION   3: 
  -295.927244789   0.009008846468 (    0.23)
CI-ITERATION   4: 
  -295.927297453   0.003440770842 (    0.18)
CI-ITERATION   5: 
  -295.927304067   0.001161925259 (    0.17)
CI-ITERATION   6: 
  -295.927304863   0.000468582994 (    0.17)
CI-ITERATION   7: 
  -295.927304995   0.000191136619 (    0.17)
CI-ITERATION   8: 
  -295.927305016   0.000078199606 (    0.18)
CI-ITERATION   9: 
  -295.927305020   0.000030562663 (    0.23)
   CI-PROBLEM SOLVED
   DENSITIES MADE
   E(CAS)=  -295.927305020 Eh DE=    8.813777e-05
   --- Energy gap subspaces: Ext-Act = -0.091   Act-Int = -0.096
   N(occ)=  1.96576 1.93240 1.89347 1.99153 1.85758 1.85794 0.13479 0.06723 0.06713 0.09533 0.06850 0.06834
   ||g|| =     2.553365e-02 Max(G)=   -7.978502e-03 Rot=40,26
   --- Orbital Update [SuperCI(PT)]
   --- Canonicalize Internal Space
   --- Canonicalize External Space
   --- SX_PT (Skipped TA=0 IT=0): ||X|| =      0.114061238 Max(X)(27,20) =      0.059420133 
   --- SFit(Active Orbitals)

MACRO-ITERATION  10: 
   --- Inactive Energy E0 = -277.47307796 Eh
CI-ITERATION   0: 
  -295.906625304   0.137549896895 (    0.18)
CI-ITERATION   1: 
  -295.923965320   0.057802839006 (    0.18)
CI-ITERATION   2: 
  -295.927515577   0.023884663775 (    0.18)
CI-ITERATION   3: 
  -295.927863832   0.009159586021 (    0.18)
CI-ITERATION   4: 
  -295.927917767   0.003494687999 (    0.20)
CI-ITERATION   5: 
  -295.927924533   0.001177892648 (    0.20)
CI-ITERATION   6: 
  -295.927925342   0.000474941579 (    0.23)
CI-ITERATION   7: 
  -295.927925477   0.000194551182 (    0.18)
CI-ITERATION   8: 
  -295.927925499   0.000079858417 (    0.18)
CI-ITERATION   9: 
  -295.927925502   0.000031072310 (    0.17)
   CI-PROBLEM SOLVED
   DENSITIES MADE
   E(CAS)=  -295.927925502 Eh DE=   -6.204822e-04
   --- Energy gap subspaces: Ext-Act = -0.096   Act-Int = -0.097
   N(occ)=  1.96491 1.93163 1.89694 1.99150 1.85804 1.85809 0.13270 0.06666 0.06669 0.09621 0.06840 0.06824
   ||g|| =     2.542948e-02 Max(G)=   -5.749019e-03 Rot=40,26
   --- Orbital Update [SuperCI(PT)]
   --- Canonicalize Internal Space
   --- Canonicalize External Space
   --- SX_PT (Skipped TA=0 IT=0): ||X|| =      0.060548161 Max(X)(37,33) =     -0.021946763 
   --- SFit(Active Orbitals)

MACRO-ITERATION  11: 
   --- Inactive Energy E0 = -277.46466404 Eh
CI-ITERATION   0: 
  -295.908143263   0.137983543017 (    0.21)
CI-ITERATION   1: 
  -295.925028179   0.057366293160 (    0.21)
CI-ITERATION   2: 
  -295.928421336   0.022885378075 (    0.23)
CI-ITERATION   3: 
  -295.928729205   0.008645416298 (    0.25)
CI-ITERATION   4: 
  -295.928776998   0.003214833117 (    0.19)
CI-ITERATION   5: 
  -295.928782565   0.001087332612 (    0.20)
CI-ITERATION   6: 
  -295.928783257   0.000442735172 (    0.25)
CI-ITERATION   7: 
  -295.928783370   0.000182342550 (    0.24)
CI-ITERATION   8: 
  -295.928783389   0.000074715776 (    0.21)
CI-ITERATION   9: 
  -295.928783392   0.000028464853 (    0.25)
   CI-PROBLEM SOLVED
   DENSITIES MADE
   E(CAS)=  -295.928783392 Eh DE=   -8.578897e-04
   --- Energy gap subspaces: Ext-Act = -0.108   Act-Int = -0.093
   N(occ)=  1.96312 1.93119 1.90526 1.99091 1.86253 1.86261 0.12552 0.06448 0.06455 0.09609 0.06694 0.06679
   ||g|| =     1.418114e-02 Max(G)=   -4.712363e-03 Rot=40,26
   --- Orbital Update [SuperCI(PT)]
   --- Canonicalize Internal Space
   --- Canonicalize External Space
   --- SX_PT (Skipped TA=0 IT=0): ||X|| =      0.044762660 Max(X)(44,32) =     -0.018028442 
   --- SFit(Active Orbitals)

MACRO-ITERATION  12: 
   --- Inactive Energy E0 = -277.46433159 Eh
CI-ITERATION   0: 
  -295.908241472   0.137969448571 (    0.23)
CI-ITERATION   1: 
  -295.925094295   0.057316131794 (    0.24)
CI-ITERATION   2: 
  -295.928471432   0.022879784639 (    0.19)
CI-ITERATION   3: 
  -295.928777866   0.008652609355 (    0.23)
CI-ITERATION   4: 
  -295.928825506   0.003223654627 (    0.31)
CI-ITERATION   5: 
  -295.928831098   0.001087354504 (    0.22)
CI-ITERATION   6: 
  -295.928831787   0.000442134245 (    0.33)
CI-ITERATION   7: 
  -295.928831900   0.000181919398 (    0.21)
CI-ITERATION   8: 
  -295.928831918   0.000074152005 (    0.20)
CI-ITERATION   9: 
  -295.928831921   0.000028152631 (    0.23)
   CI-PROBLEM SOLVED
   DENSITIES MADE
   E(CAS)=  -295.928831921 Eh DE=   -4.852939e-05
   --- Energy gap subspaces: Ext-Act = -0.109   Act-Int = -0.093
   N(occ)=  1.96312 1.93128 1.90568 1.99083 1.86296 1.86299 0.12499 0.06436 0.06445 0.09594 0.06678 0.06663
   ||g|| =     1.115912e-02 Max(G)=   -3.564550e-03 Rot=40,26
   --- Orbital Update [SuperCI(PT)]
   --- Canonicalize Internal Space
   --- Canonicalize External Space
   --- SX_PT (Skipped TA=0 IT=0): ||X|| =      0.049948681 Max(X)(44,32) =     -0.021217719 
   --- SFit(Active Orbitals)

MACRO-ITERATION  13: 
   --- Inactive Energy E0 = -277.46752804 Eh
CI-ITERATION   0: 
  -295.908155331   0.138217881903 (    0.26)
CI-ITERATION   1: 
  -295.925051812   0.057420089390 (    0.22)
CI-ITERATION   2: 
  -295.928433927   0.022912337990 (    0.23)
CI-ITERATION   3: 
  -295.928740937   0.008657177490 (    0.18)
CI-ITERATION   4: 
  -295.928788580   0.003220889712 (    0.22)
CI-ITERATION   5: 
  -295.928794158   0.001085542434 (    0.26)
CI-ITERATION   6: 
  -295.928794844   0.000441284284 (    0.19)
CI-ITERATION   7: 
  -295.928794957   0.000181513509 (    0.22)
CI-ITERATION   8: 
  -295.928794975   0.000073971383 (    0.23)
CI-ITERATION   9: 
  -295.928794978   0.000028053614 (    0.29)
   CI-PROBLEM SOLVED
   DENSITIES MADE
   E(CAS)=  -295.928794978 Eh DE=    3.694344e-05
   --- Energy gap subspaces: Ext-Act = -0.109   Act-Int = -0.094
   N(occ)=  1.96304 1.93114 1.90612 1.99090 1.86285 1.86285 0.12475 0.06443 0.06448 0.09602 0.06679 0.06663
   ||g|| =     1.587688e-02 Max(G)=   -3.161438e-03 Rot=38,29
   --- Orbital Update [SuperCI(PT)]
   --- Canonicalize Internal Space
   --- Canonicalize External Space
   --- SX_PT (Skipped TA=0 IT=0): ||X|| =      0.029476665 Max(X)(44,32) =     -0.007886642 
   --- SFit(Active Orbitals)

MACRO-ITERATION  14: 
   --- Inactive Energy E0 = -277.45650949 Eh
CI-ITERATION   0: 
  -295.908401833   0.138779993061 (    0.24)
CI-ITERATION   1: 
  -295.925224201   0.057340386602 (    0.24)
CI-ITERATION   2: 
  -295.928538598   0.022739916473 (    0.19)
CI-ITERATION   3: 
  -295.928836371   0.008567344615 (    0.22)
CI-ITERATION   4: 
  -295.928882262   0.003175326691 (    0.21)
CI-ITERATION   5: 
  -295.928887625   0.001064597400 (    0.22)
CI-ITERATION   6: 
  -295.928888275   0.000430202273 (    0.22)
CI-ITERATION   7: 
  -295.928888380   0.000175851631 (    0.22)
CI-ITERATION   8: 
  -295.928888396   0.000070505720 (    0.19)
CI-ITERATION   9: 
  -295.928888399   0.000026375743 (    0.22)
   CI-PROBLEM SOLVED
   DENSITIES MADE
   E(CAS)=  -295.928888399 Eh DE=   -9.342113e-05
   --- Energy gap subspaces: Ext-Act = -0.115   Act-Int = -0.092
   N(occ)=  1.96246 1.93160 1.91005 1.99055 1.86623 1.86628 0.12065 0.06292 0.06295 0.09531 0.06557 0.06542
   ||g|| =     8.082889e-03 Max(G)=   -2.219775e-03 Rot=36,25
   --- Orbital Update [SuperCI(PT)]
   --- Canonicalize Internal Space
   --- Canonicalize External Space
   --- SX_PT (Skipped TA=0 IT=0): ||X|| =      0.021300192 Max(X)(37,33) =      0.009576824 
   --- SFit(Active Orbitals)

MACRO-ITERATION  15: 
   --- Inactive Energy E0 = -277.45737068 Eh
CI-ITERATION   0: 
  -295.908489363   0.138635781342 (    0.31)
CI-ITERATION   1: 
  -295.925271578   0.057207328936 (    0.21)
CI-ITERATION   2: 
  -295.928570563   0.022589809172 (    0.21)
CI-ITERATION   3: 
  -295.928864640   0.008485818970 (    0.19)
CI-ITERATION   4: 
  -295.928909677   0.003131872544 (    0.21)
CI-ITERATION   5: 
  -295.928914888   0.001049895386 (    0.18)
CI-ITERATION   6: 
  -295.928915520   0.000423963401 (    0.22)
CI-ITERATION   7: 
  -295.928915622   0.000173574921 (    0.18)
CI-ITERATION   8: 
  -295.928915638   0.000069825413 (    0.22)
CI-ITERATION   9: 
  -295.928915641   0.000026132676 (    0.21)
   CI-PROBLEM SOLVED
   DENSITIES MADE
   E(CAS)=  -295.928915641 Eh DE=   -2.724215e-05
   --- Energy gap subspaces: Ext-Act = -0.116   Act-Int = -0.092
   N(occ)=  1.96260 1.93176 1.91018 1.99047 1.86671 1.86672 0.12017 0.06286 0.06289 0.09501 0.06540 0.06524
   ||g|| =     4.712998e-03 Max(G)=   -1.671316e-03 Rot=40,24
   --- Orbital Update [SuperCI(PT)]
   --- Canonicalize Internal Space
   --- Canonicalize External Space
   --- SX_PT (Skipped TA=0 IT=0): ||X|| =      0.016734930 Max(X)(37,33) =      0.007181664 
   --- SFit(Active Orbitals)

MACRO-ITERATION  16: 
   --- Inactive Energy E0 = -277.45756660 Eh
CI-ITERATION   0: 
  -295.908505898   0.138610019769 (    0.22)
CI-ITERATION   1: 
  -295.925280085   0.057191051301 (    0.22)
CI-ITERATION   2: 
  -295.928576885   0.022585087965 (    0.29)
CI-ITERATION   3: 
  -295.928870773   0.008482929527 (    0.22)
CI-ITERATION   4: 
  -295.928915771   0.003130228059 (    0.29)
CI-ITERATION   5: 
  -295.928920975   0.001049092765 (    0.26)
CI-ITERATION   6: 
  -295.928921606   0.000423643595 (    0.28)
CI-ITERATION   7: 
  -295.928921708   0.000173534750 (    0.20)
CI-ITERATION   8: 
  -295.928921724   0.000069814900 (    0.19)
CI-ITERATION   9: 
  -295.928921727   0.000026129370 (    0.19)
   CI-PROBLEM SOLVED
   DENSITIES MADE
   E(CAS)=  -295.928921727 Eh DE=   -6.085870e-06
   --- Energy gap subspaces: Ext-Act = -0.116   Act-Int = -0.092
   N(occ)=  1.96261 1.93178 1.91019 1.99046 1.86680 1.86681 0.12011 0.06283 0.06286 0.09496 0.06537 0.06522
   ||g|| =     3.546699e-03 Max(G)=   -1.328749e-03 Rot=40,24
   --- Orbital Update [SuperCI(PT)]
   --- Canonicalize Internal Space
   --- Canonicalize External Space
   --- SX_PT (Skipped TA=0 IT=0): ||X|| =      0.015871910 Max(X)(37,33) =      0.005503439 
   --- SFit(Active Orbitals)

MACRO-ITERATION  17: 
   --- Inactive Energy E0 = -277.46243556 Eh
CI-ITERATION   0: 
  -295.908552109   0.138353911437 (    0.22)
CI-ITERATION   1: 
  -295.925285473   0.057088239202 (    0.19)
CI-ITERATION   2: 
  -295.928576717   0.022558369106 (    0.18)
CI-ITERATION   3: 
  -295.928870185   0.008472851568 (    0.26)
CI-ITERATION   4: 
  -295.928915129   0.003127534607 (    0.19)
CI-ITERATION   5: 
  -295.928920332   0.001047825803 (    0.18)
CI-ITERATION   6: 
  -295.928920963   0.000423247205 (    0.17)
CI-ITERATION   7: 
  -295.928921064   0.000173486233 (    0.18)
CI-ITERATION   8: 
  -295.928921081   0.000069728557 (    0.19)
CI-ITERATION   9: 
  -295.928921083   0.000026026945 (    0.17)
   CI-PROBLEM SOLVED
   DENSITIES MADE
   E(CAS)=  -295.928921083 Eh DE=    6.436830e-07
   --- Energy gap subspaces: Ext-Act = -0.116   Act-Int = -0.091
   N(occ)=  1.96267 1.93186 1.90997 1.99048 1.86683 1.86688 0.12021 0.06281 0.06284 0.09487 0.06536 0.06521
   ||g|| =     3.361518e-03 Max(G)=   -8.168853e-04 Rot=40,24
   --- Orbital Update [SuperCI(PT)]
   --- Canonicalize Internal Space
   --- Canonicalize External Space
   --- SX_PT (Skipped TA=0 IT=0): ||X|| =      0.009263388 Max(X)(24,20) =     -0.003232340 
   --- SFit(Active Orbitals)

MACRO-ITERATION  18: 
   --- Inactive Energy E0 = -277.45591890 Eh
CI-ITERATION   0: 
  -295.908518181   0.138790006091 (    0.28)
CI-ITERATION   1: 
  -295.925290083   0.057204385495 (    0.27)
CI-ITERATION   2: 
  -295.928574493   0.022553685861 (    0.24)
CI-ITERATION   3: 
  -295.928866597   0.008456215244 (    0.24)
CI-ITERATION   4: 
  -295.928911163   0.003114210595 (    0.24)
CI-ITERATION   5: 
  -295.928916301   0.001042090631 (    0.18)
CI-ITERATION   6: 
  -295.928916922   0.000420263837 (    0.24)
CI-ITERATION   7: 
  -295.928917022   0.000172035190 (    0.18)
CI-ITERATION   8: 
  -295.928917038   0.000069039742 (    0.20)
CI-ITERATION   9: 
  -295.928917041   0.000025727149 (    0.25)
   CI-PROBLEM SOLVED
   DENSITIES MADE
   E(CAS)=  -295.928917041 Eh DE=    4.042719e-06
   --- Energy gap subspaces: Ext-Act = -0.117   Act-Int = -0.091
   N(occ)=  1.96244 1.93183 1.91106 1.99041 1.86743 1.86744 0.11930 0.06257 0.06260 0.09482 0.06513 0.06498
   ||g|| =     3.231122e-03 Max(G)=   -5.780593e-04 Rot=40,33
   --- Orbital Update [SuperCI(PT)]
   --- Canonicalize Internal Space
   --- Canonicalize External Space
   --- SX_PT (Skipped TA=0 IT=0): ||X|| =      0.009453071 Max(X)(37,33) =      0.004186834 
   --- SFit(Active Orbitals)

MACRO-ITERATION  19: 
   --- Inactive Energy E0 = -277.45328881 Eh
CI-ITERATION   0: 
  -295.908579124   0.138622765230 (    0.26)
CI-ITERATION   1: 
  -295.925310221   0.057097018284 (    0.17)
CI-ITERATION   2: 
  -295.928583411   0.022492593752 (    0.16)
CI-ITERATION   3: 
  -295.928873832   0.008428862893 (    0.18)
CI-ITERATION   4: 
  -295.928918086   0.003100781259 (    0.18)
CI-ITERATION   5: 
  -295.928923176   0.001036574057 (    0.19)
CI-ITERATION   6: 
  -295.928923791   0.000417731222 (    0.18)
CI-ITERATION   7: 
  -295.928923890   0.000171092604 (    0.18)
CI-ITERATION   8: 
  -295.928923905   0.000068640674 (    0.21)
CI-ITERATION   9: 
  -295.928923908   0.000025539914 (    0.24)
   CI-PROBLEM SOLVED
   DENSITIES MADE
   E(CAS)=  -295.928923908 Eh DE=   -6.867189e-06
   --- Energy gap subspaces: Ext-Act = -0.117   Act-Int = -0.091
   N(occ)=  1.96258 1.93194 1.91088 1.99036 1.86769 1.86770 0.11920 0.06251 0.06254 0.09465 0.06505 0.06490
   ||g|| =     1.581694e-03 Max(G)=   -5.637101e-04 Rot=40,33
   --- Orbital Update [SuperCI(PT)]
   --- Canonicalize Internal Space
   --- Canonicalize External Space
   --- SX_PT (Skipped TA=0 IT=0): ||X|| =      0.006439142 Max(X)(37,33) =      0.003710928 
   --- SFit(Active Orbitals)

MACRO-ITERATION  20: 
   --- Inactive Energy E0 = -277.45549096 Eh
CI-ITERATION   0: 
  -295.908587628   0.138543856571 (    0.25)
CI-ITERATION   1: 
  -295.925311673   0.057078954920 (    0.17)
CI-ITERATION   2: 
  -295.928586221   0.022503235165 (    0.26)
CI-ITERATION   3: 
  -295.928877044   0.008434427944 (    0.27)
CI-ITERATION   4: 
  -295.928921381   0.003103481791 (    0.26)
CI-ITERATION   5: 
  -295.928926483   0.001037245602 (    0.18)
CI-ITERATION   6: 
  -295.928927099   0.000418178723 (    0.20)
CI-ITERATION   7: 
  -295.928927198   0.000171471550 (    0.25)
CI-ITERATION   8: 
  -295.928927213   0.000068822897 (    0.20)
CI-ITERATION   9: 
  -295.928927216   0.000025606769 (    0.27)
   CI-PROBLEM SOLVED
   DENSITIES MADE
   E(CAS)=  -295.928927216 Eh DE=   -3.308253e-06
   --- Energy gap subspaces: Ext-Act = -0.117   Act-Int = -0.091
   N(occ)=  1.96264 1.93194 1.91061 1.99038 1.86760 1.86760 0.11937 0.06259 0.06262 0.09460 0.06510 0.06495
   ||g|| =     8.717216e-04 Max(G)=    1.580435e-04 Rot=40,19
   --- Orbital Update [SuperCI(PT)]
   --- Canonicalize Internal Space
   --- Canonicalize External Space
   --- SX_PT (Skipped TA=0 IT=0): ||X|| =      0.004122294 Max(X)(24,23) =     -0.001693395 
   --- SFit(Active Orbitals)

MACRO-ITERATION  21: 
   --- Inactive Energy E0 = -277.45496364 Eh
CI-ITERATION   0: 
  -295.908580926   0.138578820780 (    0.19)
CI-ITERATION   1: 
  -295.925310582   0.057094297928 (    0.18)
CI-ITERATION   2: 
  -295.928586050   0.022509257549 (    0.18)
CI-ITERATION   3: 
  -295.928876987   0.008436845683 (    0.25)
CI-ITERATION   4: 
  -295.928921342   0.003104409732 (    0.17)
CI-ITERATION   5: 
  -295.928926446   0.001037589941 (    0.18)
CI-ITERATION   6: 
  -295.928927062   0.000418308747 (    0.17)
CI-ITERATION   7: 
  -295.928927161   0.000171519545 (    0.18)
CI-ITERATION   8: 
  -295.928927176   0.000068848459 (    0.17)
CI-ITERATION   9: 
  -295.928927179   0.000025622157 (    0.27)
   CI-PROBLEM SOLVED
   DENSITIES MADE
   E(CAS)=  -295.928927179 Eh DE=    3.701467e-08
   --- Energy gap subspaces: Ext-Act = -0.117   Act-Int = -0.091
   N(occ)=  1.96263 1.93193 1.91064 1.99038 1.86760 1.86759 0.11935 0.06258 0.06262 0.09462 0.06510 0.06496
   ||g|| =     7.578093e-04 Max(G)=    1.447924e-04 Rot=40,19
   --- Orbital Update [SuperCI(PT)]
   --- Canonicalize Internal Space
   --- Canonicalize External Space
   --- SX_PT (Skipped TA=0 IT=0): ||X|| =      0.004449837 Max(X)(24,23) =     -0.001891135 
   --- SFit(Active Orbitals)

MACRO-ITERATION  22: 
   --- Inactive Energy E0 = -277.45401026 Eh
CI-ITERATION   0: 
  -295.908579630   0.138612962239 (    0.19)
CI-ITERATION   1: 
  -295.925311024   0.057102856053 (    0.17)
CI-ITERATION   2: 
  -295.928585801   0.022512569104 (    0.22)
CI-ITERATION   3: 
  -295.928876698   0.008436904661 (    0.18)
CI-ITERATION   4: 
  -295.928921034   0.003103700934 (    0.18)
CI-ITERATION   5: 
  -295.928926133   0.001037109677 (    0.19)
CI-ITERATION   6: 
  -295.928926748   0.000418013409 (    0.19)
CI-ITERATION   7: 
  -295.928926847   0.000171401954 (    0.17)
CI-ITERATION   8: 
  -295.928926863   0.000068792770 (    0.23)
CI-ITERATION   9: 
  -295.928926865   0.000025588855 (    0.23)
   CI-PROBLEM SOLVED
   DENSITIES MADE
   E(CAS)=  -295.928926865 Eh DE=    3.138386e-07
   --- Energy gap subspaces: Ext-Act = -0.117   Act-Int = -0.091
   N(occ)=  1.96263 1.93193 1.91068 1.99038 1.86766 1.86767 0.11929 0.06256 0.06260 0.09458 0.06508 0.06494
   ||g|| =     8.546470e-04 Max(G)=   -1.455580e-04 Rot=36,25
   --- Orbital Update [SuperCI(PT)]
   --- Canonicalize Internal Space
   --- Canonicalize External Space
   --- SX_PT (Skipped TA=0 IT=0): ||X|| =      0.002726705 Max(X)(24,20) =      0.001041193 
   --- SFit(Active Orbitals)

MACRO-ITERATION  23: 
   --- Inactive Energy E0 = -277.45293537 Eh
CI-ITERATION   0: 
  -295.908590621   0.138575344858 (    0.20)
CI-ITERATION   1: 
  -295.925313884   0.057080641382 (    0.21)
CI-ITERATION   2: 
  -295.928586738   0.022502926437 (    0.18)
CI-ITERATION   3: 
  -295.928877367   0.008432993874 (    0.17)
CI-ITERATION   4: 
  -295.928921655   0.003101657729 (    0.17)
CI-ITERATION   5: 
  -295.928926747   0.001036127227 (    0.22)
CI-ITERATION   6: 
  -295.928927360   0.000417534738 (    0.26)
CI-ITERATION   7: 
  -295.928927459   0.000171265656 (    0.26)
CI-ITERATION   8: 
  -295.928927475   0.000068747979 (    0.17)
CI-ITERATION   9: 
  -295.928927477   0.000025565606 (    0.19)
   CI-PROBLEM SOLVED
   DENSITIES MADE
   E(CAS)=  -295.928927477 Eh DE=   -6.119237e-07
   --- Energy gap subspaces: Ext-Act = -0.117   Act-Int = -0.091
   N(occ)=  1.96267 1.93195 1.91056 1.99036 1.86772 1.86769 0.11930 0.06257 0.06261 0.09454 0.06509 0.06494
   ||g|| =     6.850988e-04 Max(G)=   -7.941064e-05 Rot=30,23
   --- Orbital Update [SuperCI(PT)]
   --- Canonicalize Internal Space
   --- Canonicalize External Space
   --- SX_PT (Skipped TA=0 IT=0): ||X|| =      0.001894163 Max(X)(24,20) =     -0.001069365 
   --- SFit(Active Orbitals)

MACRO-ITERATION  24: 
   --- Inactive Energy E0 = -277.45301864 Eh
CI-ITERATION   0: 
  -295.908588782   0.138578247944 (    0.21)
CI-ITERATION   1: 
  -295.925313386   0.057083734532 (    0.28)
CI-ITERATION   2: 
  -295.928586727   0.022505554941 (    0.23)
CI-ITERATION   3: 
  -295.928877431   0.008434345741 (    0.27)
CI-ITERATION   4: 
  -295.928921734   0.003102325451 (    0.18)
CI-ITERATION   5: 
  -295.928926828   0.001036367893 (    0.18)
CI-ITERATION   6: 
  -295.928927441   0.000417641630 (    0.22)
CI-ITERATION   7: 
  -295.928927540   0.000171320818 (    0.17)
CI-ITERATION   8: 
  -295.928927556   0.000068775671 (    0.17)
CI-ITERATION   9: 
  -295.928927558   0.000025578498 (    0.17)
   CI-PROBLEM SOLVED
   DENSITIES MADE
   E(CAS)=  -295.928927558 Eh DE=   -8.128296e-08
   --- Energy gap subspaces: Ext-Act = -0.117   Act-Int = -0.091
   N(occ)=  1.96268 1.93195 1.91055 1.99035 1.86770 1.86768 0.11931 0.06258 0.06261 0.09454 0.06510 0.06495
   ||g|| =     3.738226e-04 Max(G)=   -6.296742e-05 Rot=30,23
   --- Orbital Update [SuperCI(PT)]
   --- Canonicalize Internal Space
   --- Canonicalize External Space
   --- SX_PT (Skipped TA=0 IT=0): ||X|| =      0.002081572 Max(X)(24,20) =      0.001161008 
   --- SFit(Active Orbitals)

MACRO-ITERATION  25: 
   --- Inactive Energy E0 = -277.45281910 Eh
CI-ITERATION   0: 
  -295.908588197   0.138588658562 (    0.20)
CI-ITERATION   1: 
  -295.925313568   0.057086004345 (    0.17)
CI-ITERATION   2: 
  -295.928586667   0.022505370225 (    0.18)
CI-ITERATION   3: 
  -295.928877331   0.008433736341 (    0.18)
CI-ITERATION   4: 
  -295.928921622   0.003101796549 (    0.17)
CI-ITERATION   5: 
  -295.928926713   0.001036101793 (    0.17)
CI-ITERATION   6: 
  -295.928927326   0.000417503874 (    0.18)
CI-ITERATION   7: 
  -295.928927425   0.000171260901 (    0.20)
CI-ITERATION   8: 
  -295.928927441   0.000068749629 (    0.17)
CI-ITERATION   9: 
  -295.928927443   0.000025565561 (    0.21)
   CI-PROBLEM SOLVED
   DENSITIES MADE
   E(CAS)=  -295.928927443 Eh DE=    1.151508e-07
   --- Energy gap subspaces: Ext-Act = -0.117   Act-Int = -0.091
   N(occ)=  1.96268 1.93195 1.91055 1.99035 1.86771 1.86770 0.11929 0.06258 0.06261 0.09453 0.06509 0.06494
   ||g|| =     5.720300e-04 Max(G)=   -6.986145e-05 Rot=30,23
   --- Orbital Update [SuperCI(PT)]
   --- Canonicalize Internal Space
   --- Canonicalize External Space
   --- SX_PT (Skipped TA=0 IT=0): ||X|| =      0.001327449 Max(X)(24,20) =      0.000788394 
   --- SFit(Active Orbitals)

MACRO-ITERATION  26: 
   --- Inactive Energy E0 = -277.45294261 Eh
CI-ITERATION   0: 
  -295.908586392   0.138588883071 (    0.37)
CI-ITERATION   1: 
  -295.925312870   0.057089018014 (    0.25)
CI-ITERATION   2: 
  -295.928586554   0.022510308514 (    0.26)
CI-ITERATION   3: 
  -295.928877352   0.008436377964 (    0.38)
CI-ITERATION   4: 
  -295.928921669   0.003103097156 (    0.24)
CI-ITERATION   5: 
  -295.928926765   0.001036518358 (    0.20)
CI-ITERATION   6: 
  -295.928927378   0.000417663107 (    0.26)
CI-ITERATION   7: 
  -295.928927477   0.000171357089 (    0.21)
CI-ITERATION   8: 
  -295.928927493   0.000068800117 (    0.24)
CI-ITERATION   9: 
  -295.928927496   0.000025587756 (    0.25)
   CI-PROBLEM SOLVED
   DENSITIES MADE
   E(CAS)=  -295.928927496 Eh DE=   -5.218965e-08
   --- Energy gap subspaces: Ext-Act = -0.117   Act-Int = -0.091
   N(occ)=  1.96269 1.93194 1.91052 1.99035 1.86769 1.86767 0.11931 0.06260 0.06263 0.09453 0.06511 0.06496
   ||g|| =     3.852493e-04 Max(G)=    5.481602e-05 Rot=46,20
   --- Orbital Update [SuperCI(PT)]
   --- Canonicalize Internal Space
   --- Canonicalize External Space
   --- SX_PT (Skipped TA=0 IT=0): ||X|| =      0.001003490 Max(X)(24,20) =      0.000624568 
   --- SFit(Active Orbitals)

MACRO-ITERATION  27: 
   --- Inactive Energy E0 = -277.45300792 Eh
CI-ITERATION   0: 
  -295.908585306   0.138586827751 (    0.23)
CI-ITERATION   1: 
  -295.925312442   0.057089916018 (    0.24)
CI-ITERATION   2: 
  -295.928586530   0.022511503403 (    0.19)
CI-ITERATION   3: 
  -295.928877378   0.008437199662 (    0.17)
CI-ITERATION   4: 
  -295.928921707   0.003103570802 (    0.26)
CI-ITERATION   5: 
  -295.928926804   0.001036724728 (    0.18)
CI-ITERATION   6: 
  -295.928927418   0.000417765260 (    0.18)
CI-ITERATION   7: 
  -295.928927517   0.000171406621 (    0.23)
CI-ITERATION   8: 
  -295.928927533   0.000068823212 (    0.19)
CI-ITERATION   9: 
  -295.928927535   0.000025598334 (    0.19)
   CI-PROBLEM SOLVED
   DENSITIES MADE
   E(CAS)=  -295.928927535 Eh DE=   -3.997127e-08
   --- Energy gap subspaces: Ext-Act = -0.117   Act-Int = -0.091
   N(occ)=  1.96269 1.93194 1.91051 1.99034 1.86768 1.86765 0.11933 0.06260 0.06263 0.09454 0.06512 0.06497
   ||g|| =     1.364626e-04 Max(G)=   -2.294330e-05 Rot=30,23
                     ---- THE CAS-SCF GRADIENT HAS CONVERGED ----
                            --- FINALIZING ORBITALS ---
                    ---- DOING ONE FINAL ITERATION FOR PRINTING ----
   --- Canonicalize Internal Space
   --- Canonicalize External Space

MACRO-ITERATION  28: 
   --- Inactive Energy E0 = -277.45300793 Eh
   --- All densities will be recomputed
CI-ITERATION   0: 
  -295.916232423   0.113504701466 (    0.26)
CI-ITERATION   1: 
  -295.926996963   0.041963756860 (    0.20)
CI-ITERATION   2: 
  -295.928815230   0.012696228760 (    0.25)
CI-ITERATION   3: 
  -295.928913154   0.004451556039 (    0.17)
CI-ITERATION   4: 
  -295.928926046   0.001539752752 (    0.17)
CI-ITERATION   5: 
  -295.928927356   0.000529703247 (    0.24)
CI-ITERATION   6: 
  -295.928927517   0.000196857190 (    0.18)
CI-ITERATION   7: 
  -295.928927538   0.000072739322 (    0.17)
CI-ITERATION   8: 
  -295.928927541   0.000027412256 (    0.17)
   CI-PROBLEM SOLVED
   DENSITIES MADE
   E(CAS)=  -295.928927541 Eh DE=   -5.959691e-09
   --- Energy gap subspaces: Ext-Act = -0.158   Act-Int = -0.090
   N(occ)=  1.99257 1.99034 1.94175 1.91351 1.89757 1.89753 0.10953 0.08637 0.08635 0.06165 0.01141 0.01141
   ||g|| =     1.363870e-04 Max(G)=    2.025588e-05 Rot=30,23
--------------
CASSCF RESULTS
--------------

Final CASSCF energy       : -295.928927541 Eh   -8052.6355 eV

----------------
ORBITAL ENERGIES
----------------

  NO   OCC          E(Eh)            E(eV) 
   0   2.0000      -7.648813      -208.1348 
   1   2.0000      -7.648728      -208.1325 
   2   2.0000      -7.648690      -208.1314 
   3   2.0000      -7.648667      -208.1308 
   4   2.0000      -7.626757      -207.5346 
   5   2.0000      -7.626749      -207.5344 
   6   2.0000      -7.626705      -207.5332 
   7   2.0000      -7.626167      -207.5186 
   8   2.0000      -7.614222      -207.1935 
   9   2.0000      -7.614199      -207.1929 
  10   2.0000      -7.613424      -207.1718 
  11   2.0000      -7.613420      -207.1717 
  12   2.0000      -1.070096       -29.1188 
  13   2.0000      -0.950180       -25.8557 
  14   2.0000      -0.790642       -21.5145 
  15   2.0000      -0.790563       -21.5123 
  16   2.0000      -0.726772       -19.7765 
  17   2.0000      -0.628363       -17.0986 
  18   2.0000      -0.628325       -17.0976 
  19   2.0000      -0.498725       -13.5710 
  20   2.0000      -0.478717       -13.0265 
  21   2.0000      -0.474412       -12.9094 
  22   2.0000      -0.474372       -12.9083 
  23   2.0000      -0.440883       -11.9970 
  24   1.9926      -0.531197       -14.4546 
  25   1.9903      -0.333121        -9.0647 
  26   1.9417      -0.467616       -12.7245 
  27   1.9135      -0.381578       -10.3833 
  28   1.8976      -0.307708        -8.3732 
  29   1.8975      -0.307649        -8.3715 
  30   0.1095       0.065082         1.7710 
  31   0.0864       0.123157         3.3513 
  32   0.0864       0.123179         3.3519 
  33   0.0617       0.222029         6.0417 
  34   0.0114       0.167498         4.5578 
  35   0.0114       0.167556         4.5594 
  36   0.0000       0.063985         1.7411 
  37   0.0000       0.085930         2.3383 
  38   0.0000       0.090517         2.4631 
  39   0.0000       0.090566         2.4644 
  40   0.0000       0.104591         2.8461 
  41   0.0000       0.125459         3.4139 
  42   0.0000       0.138344         3.7645 
  43   0.0000       0.138410         3.7663 
  44   0.0000       0.155805         4.2397 
  45   0.0000       0.168224         4.5776 
  46   0.0000       0.176014         4.7896 
  47   0.0000       0.177870         4.8401 
  48   0.0000       0.185182         5.0391 
  49   0.0000       0.185196         5.0394 
  50   0.0000       0.205850         5.6015 
  51   0.0000       0.205859         5.6017 
  52   0.0000       0.213716         5.8155 
  53   0.0000       0.215029         5.8512 
  54   0.0000       0.216411         5.8888 
  55   0.0000       0.232659         6.3310 
  56   0.0000       0.240046         6.5320 
  57   0.0000       0.240086         6.5331 
  58   0.0000       0.267346         7.2749 
  59   0.0000       0.267422         7.2769 
  60   0.0000       0.277006         7.5377 
  61   0.0000       0.277686         7.5562 
  62   0.0000       0.287837         7.8325 
  63   0.0000       0.287850         7.8328 
  64   0.0000       0.291221         7.9245 
  65   0.0000       0.291385         7.9290 
  66   0.0000       0.291401         7.9294 
  67   0.0000       0.322509         8.7759 
  68   0.0000       0.323428         8.8009 
  69   0.0000       0.326352         8.8805 
  70   0.0000       0.327023         8.8988 
  71   0.0000       0.346874         9.4389 
  72   0.0000       0.346889         9.4393 
  73   0.0000       0.350041         9.5251 
  74   0.0000       0.364634         9.9222 
  75   0.0000       0.364646         9.9225 
  76   0.0000       0.370098        10.0709 
  77   0.0000       0.374695        10.1960 
  78   0.0000       0.399264        10.8645 
  79   0.0000       0.403675        10.9846 
  80   0.0000       0.407053        11.0765 
  81   0.0000       0.407143        11.0789 
  82   0.0000       0.413084        11.2406 
  83   0.0000       0.413789        11.2598 
  84   0.0000       0.413825        11.2607 
  85   0.0000       0.439331        11.9548 
  86   0.0000       0.454391        12.3646 
  87   0.0000       0.455393        12.3919 
  88   0.0000       0.455476        12.3941 
  89   0.0000       0.475189        12.9306 
  90   0.0000       0.484049        13.1717 
  91   0.0000       0.484206        13.1759 
  92   0.0000       0.484247        13.1770 
  93   0.0000       0.498693        13.5701 
  94   0.0000       0.533320        14.5124 
  95   0.0000       0.548927        14.9371 
  96   0.0000       0.548990        14.9388 
  97   0.0000       0.561615        15.2823 
  98   0.0000       0.575886        15.6707 
  99   0.0000       0.575918        15.6715 
 100   0.0000       0.578699        15.7472 
 101   0.0000       0.588285        16.0081 
 102   0.0000       0.614730        16.7277 
 103   0.0000       0.614761        16.7285 
 104   0.0000       0.646143        17.5824 
 105   0.0000       0.676760        18.4156 
 106   0.0000       0.705457        19.1965 
 107   0.0000       0.715800        19.4779 
 108   0.0000       0.722517        19.6607 
 109   0.0000       0.722565        19.6620 
 110   0.0000       0.730617        19.8811 
 111   0.0000       0.730720        19.8839 
 112   0.0000       0.738511        20.0959 
 113   0.0000       0.760229        20.6869 
 114   0.0000       0.769096        20.9282 
 115   0.0000       0.769213        20.9314 
 116   0.0000       0.782160        21.2837 
 117   0.0000       0.789202        21.4753 
 118   0.0000       0.807171        21.9643 
 119   0.0000       0.807238        21.9661 
 120   0.0000       0.810358        22.0510 
 121   0.0000       0.816177        22.2093 
 122   0.0000       0.816195        22.2098 
 123   0.0000       0.861221        23.4350 
 124   0.0000       0.861291        23.4369 
 125   0.0000       0.875728        23.8298 
 126   0.0000       0.878098        23.8943 
 127   0.0000       0.878544        23.9064 
 128   0.0000       0.886039        24.1103 
 129   0.0000       0.895216        24.3601 
 130   0.0000       0.895300        24.3623 
 131   0.0000       0.903949        24.5977 
 132   0.0000       0.907720        24.7003 
 133   0.0000       0.934146        25.4194 
 134   0.0000       0.944017        25.6880 
 135   0.0000       0.944078        25.6897 
 136   0.0000       0.950680        25.8693 
 137   0.0000       0.959610        26.1123 
 138   0.0000       0.967193        26.3187 
 139   0.0000       0.967235        26.3198 
 140   0.0000       0.967297        26.3215 
 141   0.0000       0.983856        26.7721 
 142   0.0000       1.005068        27.3493 
 143   0.0000       1.005243        27.3541 
 144   0.0000       1.010643        27.5010 
 145   0.0000       1.021981        27.8095 
 146   0.0000       1.028377        27.9836 
 147   0.0000       1.028476        27.9863 
 148   0.0000       1.077816        29.3289 
 149   0.0000       1.079083        29.3633 
 150   0.0000       1.079261        29.3682 
 151   0.0000       1.089945        29.6589 
 152   0.0000       1.096897        29.8481 
 153   0.0000       1.123053        30.5598 
 154   0.0000       1.123192        30.5636 
 155   0.0000       1.150451        31.3054 
 156   0.0000       1.171040        31.8656 
 157   0.0000       1.189987        32.3812 
 158   0.0000       1.211845        32.9760 
 159   0.0000       1.211906        32.9776 
 160   0.0000       1.215764        33.0826 
[...]
      f+1     :     0.008160
      f-1     :     0.007446
      f+2     :     0.006375
      f-2     :     0.021759
      f+3     :     0.009494
      f-3     :     0.013776
 10 B s       :     2.473993  s :     2.473993
      pz      :     0.597011  p :     1.868140
      px      :     0.673293
      py      :     0.597836
      dz2     :     0.107019  d :     0.584763
      dxz     :     0.115209
      dyz     :     0.119300
      dx2y2   :     0.127720
      dxy     :     0.115516
      f0      :     0.021700  f :     0.099232
      f+1     :     0.009932
      f-1     :     0.014606
      f+2     :     0.012219
      f-2     :     0.011444
      f+3     :     0.009987
      f-3     :     0.019343
 11 B s       :     2.555564  s :     2.555564
      pz      :     0.501209  p :     1.890380
      px      :     0.887924
      py      :     0.501248
      dz2     :     0.090816  d :     0.438359
      dxz     :     0.105364
      dyz     :     0.033029
      dx2y2   :     0.103678
      dxy     :     0.105472
      f0      :     0.008087  f :     0.076167
      f+1     :     0.018412
      f-1     :     0.006760
      f+2     :     0.008750
      f-2     :     0.005438
      f+3     :     0.018636
      f-3     :     0.010084


                      *****************************
                      * MAYER POPULATION ANALYSIS *
                      *****************************

  NA   - Mulliken gross atomic population
  ZA   - Total nuclear charge
  QA   - Mulliken gross atomic charge
  VA   - Mayer's total valence
  BVA  - Mayer's bonded valence
  FA   - Mayer's free valence

  ATOM       NA         ZA         QA         VA         BVA        FA
  0 B      5.1502     5.0000    -0.1502     3.9431     3.7776     0.1655
  1 B      5.0892     5.0000    -0.0892     3.5649     3.4070     0.1578
  2 B      4.7608     5.0000     0.2392     3.2558     3.2282     0.0277
  3 B      5.1498     5.0000    -0.1498     3.9431     3.7777     0.1654
  4 B      5.0893     5.0000    -0.0893     3.5648     3.4069     0.1578
  5 B      4.7607     5.0000     0.2393     3.2555     3.2278     0.0277
  6 B      5.1504     5.0000    -0.1504     3.9434     3.7780     0.1654
  7 B      4.7608     5.0000     0.2392     3.2553     3.2276     0.0277
  8 B      5.0890     5.0000    -0.0890     3.5646     3.4067     0.1579
  9 B      5.1500     5.0000    -0.1500     3.9430     3.7775     0.1655
 10 B      4.7610     5.0000     0.2390     3.2555     3.2278     0.0278
 11 B      5.0888     5.0000    -0.0888     3.5645     3.4068     0.1578

  Mayer bond orders larger than 0.100000
B(  0-B ,  1-B ) :   1.2832 B(  0-B ,  5-B ) :   0.6933 B(  0-B ,  6-B ) :   0.8295 
B(  0-B ,  7-B ) :   0.6938 B(  1-B ,  2-B ) :   0.8940 B(  1-B ,  4-B ) :   0.1333 
B(  1-B ,  5-B ) :   0.3239 B(  1-B ,  7-B ) :   0.3243 B(  1-B ,  8-B ) :   0.1332 
B(  1-B , 11-B ) :   0.1172 B(  2-B ,  3-B ) :   0.6936 B(  2-B ,  4-B ) :   0.3242 
B(  2-B ,  8-B ) :   0.3238 B(  2-B ,  9-B ) :   0.6939 B(  2-B , 10-B ) :   0.1731 
B(  3-B ,  4-B ) :   1.2828 B(  3-B ,  9-B ) :   0.8294 B(  3-B , 10-B ) :   0.6941 
B(  4-B ,  5-B ) :   0.8940 B(  4-B ,  8-B ) :   0.1172 B(  4-B , 10-B ) :   0.3241 
B(  4-B , 11-B ) :   0.1333 B(  5-B ,  6-B ) :   0.6939 B(  5-B ,  7-B ) :   0.1732 
B(  5-B , 11-B ) :   0.3237 B(  6-B ,  7-B ) :   0.6932 B(  6-B , 11-B ) :   1.2835 
B(  7-B ,  8-B ) :   0.8936 B(  7-B , 11-B ) :   0.3239 B(  8-B ,  9-B ) :   1.2836 
B(  8-B , 10-B ) :   0.3241 B(  8-B , 11-B ) :   0.1333 B(  9-B , 10-B ) :   0.6928 
B( 10-B , 11-B ) :   0.8940 


-------------------------------------------------------------
 Forming the transition densities       ...

Timings within the CASSCF AO transition densities calculation:
          Density store:     0.000 Sec.
          TOTAL TIME:           0.036 Sec.

 done in 0.0 sec
-------------------------------------------------------------
Memory for address arrays  		      ... done
Make address arrays			      ... done
Memory for buffers 			      ... done
Setting up spin-function prototypes	      ... (MAXOPEN=12) 0 2 4 6 8 10 12 14 done
Trivial cases - DOMO's			      ... done (  0.2 MB)
Number of open shells			    ...  0
domo->virtual excitations			... done (  0.2 MB)
domo->somo excitations				... done (  0.2 MB)
somo->virtual excitations			... done (  0.2 MB)
somo->somo excitations				... done (  0.2 MB)
Number of open shells			    ...  2
domo->virtual excitations			... done (  0.2 MB)
domo->somo excitations				... done (  0.2 MB)
somo->virtual excitations			... done (  0.2 MB)
somo->somo excitations				... done (  0.2 MB)
Number of open shells			    ...  4
domo->virtual excitations			... done (  0.2 MB)
domo->somo excitations				... done (  0.2 MB)
somo->virtual excitations			... done (  0.2 MB)
somo->somo excitations				... done (  0.2 MB)
Number of open shells			    ...  6
domo->virtual excitations			... done (  0.2 MB)
domo->somo excitations				... done (  0.2 MB)
somo->virtual excitations			... done (  0.2 MB)
somo->somo excitations				... done (  0.2 MB)
Number of open shells			    ...  8
domo->virtual excitations			... done (  0.3 MB)
domo->somo excitations				... done (  0.3 MB)
somo->virtual excitations			... done (  0.3 MB)
somo->somo excitations				... done (  0.3 MB)
Number of open shells			    ... 10
domo->virtual excitations			... done (  1.2 MB)
domo->somo excitations				... done (  1.4 MB)
somo->virtual excitations			... done (  1.7 MB)
somo->somo excitations				... done (  1.8 MB)
Number of open shells			    ... 12
domo->virtual excitations			... done ( 14.3 MB)
domo->somo excitations				... done ( 17.8 MB)
somo->virtual excitations			... done ( 21.2 MB)
somo->somo excitations				... done ( 22.4 MB)
Coupling container construction done

--------------
CASSCF TIMINGS
--------------

Total time                       ...     1600.3 sec
Sum of individual times          ...     1597.6 sec ( 99.8%)

Calculation of AO operators
   F(Core) operator              ...      242.2 sec ( 15.1%)
   G(Act) operator               ...      246.2 sec ( 15.4%)
Calculation of MO transformed quantities
   J(MO) operators               ...      916.4 sec ( 57.3%)
   AO->MO one electron integrals ...        0.3 sec (  0.0%)
Configuration interaction steps
   CI-setup phase                ...        0.7 sec (  0.0%)
   CI-solution phase             ...      183.8 sec ( 11.5%)
   Generation of densities       ...        6.1 sec (  0.4%)
Orbital improvement steps
   Orbital gradient              ...        0.5 sec (  0.0%)
   O(1) converger                ...        1.4 sec (  0.1%)
CPCM steps
   Total CPCM time               ...        0.0 sec (  0.0%)
Properties                       ...        0.0 sec (  0.0%)
   SOC integral calculation      ...        0.0 sec (  0.0%)
   SSC RMEs (incl. integrals)    ...        0.0 sec (  0.0%)
   SOC RMEs                      ...        0.0 sec (  0.0%)

Maximum memory used throughout the entire CASSCF-calculation: 214.8 MB


           ************************************************************
           *        Program running with 6 parallel MPI-processes     *
           *              working on a common directory               *
           ************************************************************

------------------------------------------------------------------------------
                         ORCA PROPERTY INTEGRAL CALCULATIONS
------------------------------------------------------------------------------

GBWName                                   ... b12_hexagonal_prism_m1_casscf.gbw
Number of atoms                           ...     12
Number of basis functions                 ...    372
Max core memory                           ...   1800 MB

Dipole integrals                          ... YES
Quadrupole integrals                      ...  NO
Linear momentum integrals                 ...  NO
Angular momentum integrals                ... YES
Higher moments length integrals           ...  NO
Higher moments velocity integrals         ...  NO
Kinetic energy integrals                  ...  NO
GIAO right hand sides                     ...  NO
GIAO dipole derivative integrals          ...  NO
SOC integrals                             ...  NO
EPR diamagnetic integrals (GIAO)          ...  NO
EPR gauge integrals                       ...  NO
Field gradient integrals                  ...  NO (   0 nuclei)
Spin-dipole/Fermi contact integrals       ...  NO (   0 nuclei)
Contact density integrals                 ...  NO (   0 nuclei)
Nucleus-orbit integrals                   ...  NO (   0 nuclei)
Geometric perturbations                   ...  NO (  12 nuclei)

Choice of electric origin   ... Center of mass
Position of electric origin ... (  0.0000,  0.0000, -0.0000) 
Choice of magnetic origin   ... GIAO
Position of magnetic origin ... (  0.0000,  0.0000,  0.0000) 

Calculating integrals                     ... Electric Dipole (Length)     done (  0.0 sec)
Calculating integrals                     ... Angular Momentum  (ElOri)    done (  0.0 sec)

Property integrals calculated in   0.1 sec

Maximum memory used throughout the entire PROPINT-calculation: 22.4 MB


           ************************************************************
           *        Program running with 6 parallel MPI-processes     *
           *              working on a common directory               *
           ************************************************************
-------------------------------------------------------------------------------
                              ORCA-CASSCF
-------------------------------------------------------------------------------

Setting up the integral package     ... done


==========================================
CASSCF UV, CD spectra and dipole moments
==========================================
Reading integrals                                                ... 
Reading the Dipole integrals                                     ... done
Reading the Angular momentum integrals                           ... done

--------------
CASSCF TIMINGS
--------------

Total time                       ...        0.1 sec
Sum of individual times          ...        0.1 sec (102.8%)

Calculation of AO operators
Calculation of MO transformed quantities
Configuration interaction steps
   CI-setup phase                ...        0.1 sec (102.8%)
Orbital improvement steps

Maximum memory used throughout the entire CASSCF-calculation: 48.8 MB

-------------------------   --------------------
FINAL SINGLE POINT ENERGY      -295.928927541449
-------------------------   --------------------



           ************************************************************
           *        Program running with 6 parallel MPI-processes     *
           *              working on a common directory               *
           ************************************************************

------------------------------------------------------------------------------
                              ORCA PROPERTY CALCULATIONS
------------------------------------------------------------------------------

GBWName                                 ... b12_hexagonal_prism_m1_casscf.gbw
Number of atoms                         ...     12
Number of basis functions               ...    372
Max core memory                         ...   1800 MB

Electric properties:
Dipole moment                           ... YES
Quadrupole moment                       ...  NO
Static polarizability (Dipole/Dipole)   ...  NO
Static polarizability (Dipole/Quad.)    ...  NO
Static polarizability (Quad./Quad.)     ...  NO
Static polarizability (Velocity)        ...  NO
Static hyperpolarizability              ...  NO

Atomic electric properties:
Dipole moment                           ...  NO
Quadrupole moment                       ...  NO
Static polarizability                   ...  NO

Choice of electric origin               ... Center of mass
Position of electric origin             ...     0.000000     0.000000    -0.000000

General magnetic properties:
Magnetizability                         ...  NO

EPR properties:
g-Tensor (aka g-matrix)                 ...  NO
Zero-Field splitting spin-orbit         ...  NO
Zero-field splitting spin-spin          ...  NO
Hyperfine couplings                     ...  NO (   0 nuclei)
Quadrupole couplings                    ...  NO (   0 nuclei)
Contact density                         ...  NO (   0 nuclei)

NMR properties:
Chemical shifts                         ...  NO (   0 nuclei)
Spin-rotation constants                 ...  NO (   0 nuclei)
Spin-spin couplings                     ...  NO (   0 nuclei,    0 pairs)

Choice of magnetic origin               ... GIAO
Position of magnetic origin             ...     0.000000     0.000000     0.000000

Properties with geometric perturbations:
SCF Hessian                             ...  NO
IR spectrum                             ...  NO
VCD spectrum                            ...  NO
X-ray spectroscopy properties:
SCF XES/XAS/RIXS spectra                ...  NO

SCF SOC stabilization energy            ...  NO
Diagonal Born-Oppenheimer correction    ...  NO

-------------
DIPOLE MOMENT
-------------

Method             : CASSCF
Type of density    : Electron Density
Level              : Relaxed density
State              :   0
Multiplicity       :   1
Irrep              :   0
Energy             :  -295.9289275414487292 Eh
Basis              : AO
                                X                 Y                 Z
Electronic contribution:      0.000033150       0.000210705       0.000159866
Nuclear contribution   :      0.000000000       0.000000000      -0.000000000
                        -----------------------------------------
Total Dipole Moment    :      0.000033150       0.000210705       0.000159866
                        -----------------------------------------
Magnitude (a.u.)       :      0.000266557
Magnitude (Debye)      :      0.000677535



--------------------
Rotational spectrum 
--------------------
 
Rotational constants in cm-1:             0.090893             0.054457             0.054453 
Rotational constants in MHz :          2724.899914          1632.591036          1632.460962 

Dipole components along the rotational axes: 
x,y,z [a.u.] :    -0.000032     0.000199     0.000174 
x,y,z [Debye]:    -0.000082     0.000506     0.000443 

 

Dipole moment calculation done in   0.0 sec 

Maximum memory used throughout the entire PROP-calculation: 19.2 MB
Converting b12_hexagonal_prism_m1_casscf.gbw to JSON (see b12_hexagonal_prism_m1_casscf.2jsonout) ... done

--------------------------------
SUGGESTED CITATIONS FOR THIS RUN
--------------------------------

Below you find a list of papers that are relevant to this ORCA run
We neither can nor want to force you to cite these papers, but we appreciate if you do
You receive ORCA, which is the product of decades of hard work by many enthusiastic individuals, for free
The only thing we kindly ask in return is that you cite our papers,
We deeply appreciate it, if you show your appreciation for ORCA by not just citing the generic ORCA reference.

Please note that relegating all ORCA citations to the supporting information does *not* help us.
SI sections are not indexed - citations you put there will not count into any citation statistics
But we need these citations in order to attract the funding resources that allow us to do what we are doing

Therefore, if you are a happy ORCA user, please consider citing a few of the papers listed below in the main body of your paper

In addition to the list printed below, the program has created the file b12_hexagonal_prism_m1_casscf.bibtex that contains the list in bibtex format
You can import this file easily into all common literature databanks and citation aid programs

It goes without saying that in many instances, there are alternative algorithms to achieve similar
results as the ones you have gotten from ORCA. It is, of course, also the case that in some instances
ORCA just re-implements algorithms worked out by others. We are fully aware of that and we are also
fully appreciative of our colleagues work. Hence this citation list should not be read as indicating
that the listed papers, which are focused on our own work, are the only ones worth citing. It simply
meant to make it easier for users to cite ORCA specific papers. It is not a substitute for doing your
own literature research and citing the relevant literature in a scientifically appropriate manner.

List of essential papers. We consider these as the minimum necessary citations

  1. Neese, F.
     Software update: the ORCA program system, version 6.0
     WIRES Comput. Molec. Sci. 2025 15(1), e70019
     doi.org/10.1002/wcms.70019

List of papers to cite with high priority. The work reported in these papers was absolutely
necessary for this run to complete.
Our perspective: the developers of density functionals and basis sets usually get cited in chemistry papers
Good! But without the algorithms to do something with them, the functionals or basis sets would not do anything.
Hence, in our opinion, the algorithm design and method developments papers are equally worthy of getting cited

  1. Kollmar, C.; Sivalingam, K.; Helmich-Paris, B.; Angeli, C.; Neese, F.
     A perturbation-based super-CI approach for the orbital optimization of a CASSCF wave function
     J. Comput. Chem. 2019 40 , 1463-1470
     doi.org/10.1002/jcc.25801
  2. Neese, F.
     The SHARK Integral Generation and Digestion System
     J. Comp. Chem. 2022 44(3), 381
     doi.org/10.1002/jcc.26942
  3. Ugandi, M.; Roemelt, M.
     A recursive formulation of one-electron coupling coefficients for spin-adapted configuration interaction calculations featuring many unpaired electrons
     Int. J. Quantum Chem. 2023 123 , e27045
     doi.org/10.1002/qua.27045

List of suggested additional citations. These are papers that are important in the 'surrounding' of 
of this run, or papers that preceded the highly important papers. If you like your results we are grateful for a citation.

  1. Neese, F.
     The ORCA program system
     WIRES Comput. Molec. Sci. 2012 2(1), 73-78
     doi.org/10.1002/wcms.81
  2. Neese, F.
     Software update: the ORCA program system, version 4.0
     WIRES Comput. Molec. Sci. 2018 8(1), 1-6
     doi.org/10.1002/wcms.1327
  3. Neese, F.; Wennmohs, F.; Becker, U.; Riplinger, C.
     The ORCA quantum chemistry program package
     J. Chem. Phys. 2020 152(22), 224108
     doi.org/10.1063/5.0004608
  4. Neese, F.
     Software update: The ORCA program system—Version 5.0
     WIRES Comput. Molec. Sci. 2022 12(1), e1606
     doi.org/10.1002/wcms.1606

List of optional additional citations

  1. Neese, F.
     Approximate second-order SCF convergence for spin unrestricted wavefunctions
     Chem. Phys. Lett. 2000 325(1-3), 93-98
     doi.org/10.1016/s0009-2614(00)00662-x

Timings for individual modules:

Sum of individual times          ...     1602.624 sec (=  26.710 min)
Startup calculation              ...        0.941 sec (=   0.016 min)   0.1 %
SCF iterations                   ...        0.570 sec (=   0.010 min)   0.0 %
CASSCF iterations                ...     1600.649 sec (=  26.677 min)  99.9 %
Property integrals               ...        0.247 sec (=   0.004 min)   0.0 %
Property calculations            ...        0.217 sec (=   0.004 min)   0.0 %
                             ****ORCA TERMINATED NORMALLY****
TOTAL RUN TIME: 0 days 0 hours 26 minutes 43 seconds 265 msec
