
                                 *****************
                                 * O   R   C   A *
                                 *****************

                                            #,                                       
                                            ###                                      
                                            ####                                     
                                            #####                                    
                                            ######                                   
                                           ########,                                 
                                     ,,################,,,,,                         
                               ,,#################################,,                 
                          ,,##########################################,,             
                       ,#########################################, ''#####,          
                    ,#############################################,,   '####,        
                  ,##################################################,,,,####,       
                ,###########''''           ''''###############################       
              ,#####''   ,,,,##########,,,,          '''####'''          '####       
            ,##' ,,,,###########################,,,                        '##       
           ' ,,###''''                  '''############,,,                           
         ,,##''                                '''############,,,,        ,,,,,,###''
      ,#''                                            '''#######################'''  
     '                                                          ''''####''''         
             ,#######,   #######,   ,#######,      ##                                
            ,#'     '#,  ##    ##  ,#'     '#,    #''#        ,####,    ,#,          
            ##       ##  ##   ,#'  ##            #'  '#       #'       ,# #          
            ##       ##  #######   ##           ,######,      #####,      #          
            '#,     ,#'  ##    ##  '#,     ,#' ,#      #,     #,   #      #          
             '#######'   ##     ##  '#######'  #'      '#     '####' #    #          



                #########################################################
                #                        -***-                          #
                #          Department of theory and spectroscopy        #
                #                                                       #
                #                      Frank Neese                      #
                #                                                       #
                #     Directorship, Architecture, Infrastructure        #
                #                    SHARK, DRIVERS                     #
                #        Core code/Algorithms in most modules           #
                #                                                       #
                #        Max Planck Institute fuer Kohlenforschung      #
                #                Kaiser Wilhelm Platz 1                 #
                #                 D-45470 Muelheim/Ruhr                 #
                #                      Germany                          #
                #                                                       #
                #                  All rights reserved                  #
                #                        -***-                          #
                #########################################################


                         Program Version 6.1.1  -  RELEASE   -


 With contributions from (in alphabetic order):
[Max-Planck-Institut fuer Kohlenforschung]                               
  Daniel Aravena         : Magnetic Suceptibility                        
  Michael Atanasov       : Ab Initio Ligand Field Theory (pilot matlab implementation)
  Alexander A. Auer      : GIAO ZORA, VPT2 properties, NMR spectrum      
  Ute Becker             : All parallelization in ORCA, NUMFREQ, NUMCALC 
  Giovanni Bistoni       : ED, misc. LED, open-shell LED, HFLD           
  Dmytro Bykov           : pre 5.0 version of the SCF Hessian            
  Marcos Casanova-Páez   : Triplet and SCS-CIS(D). UHF-(DLPNO)-IP/EA/STEOM-CCSD. UHF-CVS-IP/STEOM-CCSD   
  Vijay G. Chilkuri      : MRCI spin determinant printing, contributions to CSF-ICE 
  Pauline Colinet        : FMM embedding                                 
  Dipayan Datta          : RHF DLPNO-CCSD density                        
  Achintya Kumar Dutta   : EOM-CC, STEOM-CC                              
  Nicolas Foglia         : Exact transition moments, OPA infrastructure, MCD improvements    
  Dmitry Ganyushin       : Spin-Orbit,Spin-Spin,Magnetic field MRCI      
  Miquel Garcia-Rates    : C-PCM and meta-GGA Hessian, CCSD/C-PCM, Gaussian charge scheme 
  Tiago L. C. Gouveia    : GS-ROHF, GS-ROCIS                             
  Yang Guo               : DLPNO-NEVPT2, F12-NEVPT2, CIM, IAO-localization        
  Andreas Hansen         : Spin unrestricted coupled pair/coupled cluster methods 
  Ingolf Harden          : AUTO-CI MPn and infrastructure                
  Benjamin Helmich-Paris : MC-RPA, TRAH-(SCF,CASSCF), AVAS, COSX integrals, SCF dyn. polar., MC-PDFT, srDFT 
  Lee Huntington         : MR-EOM, pCC                                   
  Robert Izsak           : Overlap fitted RIJCOSX, COSX-SCS-MP3, EOM     
  Riya Kayal             : Wick's Theorem for AUTO-CI, AUTO-CI UHF-CCSDT 
  Emily Kempfer          : AUTO-CI RHF CISDT and CCSDT, approximate NEVPT4
  Christian Kollmar      : KDIIS, OOCD, Brueckner-CCSD(T), CCSD density, CASPT2, CASPT2-K, improved NEVPT2 
  Axel Koslowski         : Symmetry handling                             
  Simone Kossmann        : meta-GGA functionals, TD-DFT gradient, OOMP2, (MP2 Hessian; deprecated post 5.0) 
  Lucas Lang             : DCDCAS, Hyperfine gauge corrections, ICE-SOC+SSC
  Marvin Lechner         : AUTO-CI (C++ implementation), FIC-MRCC        
  Spencer Leger          : CASSCF response                               
  Dagmar Lenk            : GEPOL surface, SMD, ORCA-2-JSON               
  Dimitrios Liakos       : Extrapolation schemes; Compound Job, Property file
  Dimitrios Manganas     : Further ROCIS development; embedding schemes. LFT, Crystal Embedding 
  Dimitrios Pantazis     : SARC Basis sets                               
  Anastasios Papadopoulos: AUTO-CI, single reference methods and gradients 
  Taras Petrenko         : pre 6.0 DFT Hessian and TD-DFT gradient,  ECA, NRVS 
  Petra Pikulova         : Analytic Raman intensities                    
  Peter Pinski           : DLPNO-MP2, DLPNO-MP2 Gradient                 
  Shashank Vittal Rao    : ES-AILFT, MagRelax                            
  Christoph Reimann      : Effective Core Potentials                     
  Marius Retegan         : Local ZFS, SOC                                
  Christoph Riplinger    : Optimizer, TS searches, QM/MM, DLPNO-CCSD(T), (RO)-DLPNO pert. Triples 
  Michael Roemelt        : Original ROCIS implementation, recursive CI coupling coefficients
  Masaaki Saitow         : Open-shell DLPNO-CCSD energy and density      
  Barbara Sandhoefer     : DKH picture change effects                    
  Yorick L. A. Schmerwitz: GMF and freeze-and-release deltaSCF, NEB S-IDPP initial path                    
  Kantharuban Sivalingam : CASSCF convergence/infrastructure, NEVPT2, NEVPT3, NEVPT4(SD), FIC-MRCI and CEPA variants
  Bernardo de Souza      : ESD, SOC TD-DFT                               
  Georgi L. Stoychev     : AutoAux, RI-MP2 NMR, DLPNO-MP2 response, X2C  
  Van Anh Tran           : RI-MP2 g-tensors                              
  Willem Van den Heuvel  : Paramagnetic NMR                              
  Zikuan Wang            : NOTCH, Electric field optimization            
  Frank Wennmohs         : Technical directorship and infrastructure     
  Hang Xu                : AUTO-CI-Response properties                   
                                                                         
[FACCTs GmbH]                                                            
  Markus Bursch, Nicolas Foglia, Miquel Garcia-Rates, Ingolf Harden, Hagen Neugebauer, Anastasios Papadopoulos, 
  Christoph Riplinger, Bernardo de Souza, Georgi L. Stoychev                                                    
                                                                 
  APM, various basis sets, CI-OPT, improved COSX, DLPNO-Multilevel,           
  DOCKER, DRACO, updates on ESD, Fragmentator, GOAT, IRC, LR-CPCM, L-BFGS, MBIS, meta-GGA TD-DFT gradient, ML-optimized integration grids, 
  MM, NACMEs, nearIR, NEB, NEB-TS, NL-DFT gradient (VV10), 2- and 3-layer-ONIOM, interface openCOSMO-RS, QMMM,   
  Crystal-QMMM, RESP, rigid body optimization, SF, symmetry and pop. for TD-DFT, various functionals, SOLVATOR                                   
                                                                         
[Other institutions]                                                     
  V. Asgeirsson          : NEB                                           
  Christoph Bannwarth    : sTDA-DFT, sTD-DFT, PBEh-3c, B97-3c, D3        
  Giovanni Bistoni       : ETS/NOCV, ADLD/ADEX, COVALED                  
  Martin Brehm           : Molecular dynamics                            
  Ronald Cardenas        : ETS/NOCV                                      
  Martina Colucci        : COVALED                                       
  Sebastian Ehlert       : rSCAN, r2SCAN, r2SCAN-3c, D4, dhf basis sets  
  Marvin Friede          : D4 for Fr, Ra, Ac-Lr                          
  Lars Goerigk           : TD-DFT with DH, B97 family of functionals     
  Stefan Grimme          : VdW corrections, initial TS optimization, DFT functionals, gCP, sTDA/sTD-DF 
  Waldemar Hujo          : DFT-NL                                        
  H. Jonsson             : NEB                                           
  Holger Kruse           : gCP                                           
  Marcel Mueller         : wB97X-3c, vDZP basis set                      
  Hagen Neugebauer       : wr2SCAN, Native XTB                           
  Gianluca Regni         : ADLD/ADEX                                     
  Tobias Risthaus        : pre 6.0 range-separated hybrid DFT and stability analysis
  Lukas Wittmann         : regularized MP2, r2SCAN double-hybrids, wr2SCAN        
                                                                         
We gratefully acknowledge several colleagues who have allowed us to      
interface, adapt or use parts of their codes:                            
  Ed Valeev, F. Pavosevic, A. Kumar             : LibInt (2-el integral package), F12 methods 
  Garnet Chan, S. Sharma, J. Yang, R. Olivares  : DMRG                   
  Ulf Ekstrom                                   : XCFun DFT Library      
  Mihaly Kallay                                 : mrcc  (arbitrary order and MRCC methods)
  Frank Weinhold                                : gennbo (NPA and NBO analysis)           
  Simon Mueller                                 : openCOSMO-RS                            
  Christopher J. Cramer and Donald G. Truhlar   : smd solvation model                     
  S Lehtola, MJT Oliveira, MAL Marques          : LibXC Library                           
  Liviu Ungur et al                             : ANISO software                          


 Your calculation uses the libint2 library for the computation of 2-el integrals
 For citations please refer to: http://libint.valeyev.net

 Your ORCA version has been built with support for libXC version: 7.0.0
 For citations please refer to: https://libxc.gitlab.io

 This ORCA versions uses:
   CBLAS   interface :  Fast vector & matrix operations
   LAPACKE interface :  Fast linear algebra routines
   Shared memory     :  Shared parallel matrices


  ***********************************
  * Starting time: Mon Mar 30 17:45:11 2026
  * Host name:     DESKTOP-E59RH2R
  * Process ID:    80196
  * Working dir.:  C:\Users\gnome\Desktop\Vitya_Diplom\Vitya_DiplomB12\03_refined_candidates\b12_hexagonal_prism\mult_1
  ***********************************

NOTE: MaxCore=1500 MB was set to SCF,MP2,MDCI,CIPSI,MRCI,RASCI and CIS
      => If you want to overwrite this, your respective input block should be placed after the MaxCore statement
Your calculation utilizes the geometrical counterpoise correction gCP
Please cite in your paper:
H.Kruse, S. Grimme J.Chem.Phys., 136, (2012), 154101 
   

Your calculation utilizes the atom-pairwise dispersion correction
based on EEQ partial charges (D4)


================================================================================

----- Orbital basis set information -----
Your calculation utilizes the basis: def2-mTZVPP
   Stefan Grimme, Andreas Hansen, Sebastian Ehlert, and Jan-Michael Mewes 
   J. Chem. Phys. 154, 064103 (2021). DOI: 10.1063/5.0040021

----- AuxJ basis set information -----
Your calculation utilizes the basis: def2-mTZVPP/J
   Stefan Grimme, Andreas Hansen, Sebastian Ehlert, and Jan-Michael Mewes 
   J. Chem. Phys. 154, 000000 (2021). DOI: 10.1063/5.0040021

================================================================================
                                        WARNINGS
                       Please study these warnings very carefully!
================================================================================



WARNING: SCAN, rSCAN, or r2SCAN functional requested.
  ===> : libXC variant has now been activated.



WARNING: Geometry Optimization
  ===> : Switching off AutoStart
         For restart on a previous wavefunction, please use MOREAD

================================================================================
                                       INPUT FILE
================================================================================
NAME = b12_hexagonal_prism_m1_refine.inp
|  1> !r2scan-3c
|  2> !tightopt
|  3> !tightscf
|  4> 
|  5> %output
|  6>     jsonpropfile true
|  7>     jsongbwfile true
|  8> end
|  9> 
| 10> %maxcore 1500
| 11> %pal
| 12>   nprocs 8
| 13> end
| 14> 
| 15> * xyz 0 1
| 16> B             1.9173942843800200             0.5855262577771499             0.5948788590046100
| 17> B             0.5726572558401500             1.0939074576827901             1.0874674091201599
| 18> B            -0.9896655021322200             0.7945342304137401             0.7848664278716700
| 19> B            -1.9184331233883900            -0.5764329881931500             0.5960179167189300
| 20> B            -0.5754716720166900            -1.0943516993369000             1.0727577079329200
| 21> B             0.9941114347859900            -0.7925490493823100             0.7810332550465000
| 22> B             1.9295053048266100            -0.5887625911516799            -0.5963814296616200
| 23> B             0.9930753636950500             0.7634066226757700            -0.7914767729049600
| 24> B            -0.5673333831830900             1.0872705817655099            -1.0751562330792199
| 25> B            -1.9298420888621100             0.5924677848714700            -0.5923860936347400
| 26> B            -0.9944676146304200            -0.7705837837538900            -0.7869570559327800
| 27> B             0.5684697406851100            -1.0944328233684899            -1.0746639904814701
| 28> *
| 29> 
| 30>                          ****END OF INPUT****
================================================================================

                       *****************************
                       * Geometry Optimization Run *
                       *****************************

Geometry optimization settings:
Update method            Update   .... BFGS
Choice of coordinates    CoordSys .... (2022) Redundant Internals
Initial Hessian          InHess   .... Almloef's Model
Max. no of cycles        MaxIter  .... 50

Convergence Tolerances:
Energy Change            TolE     ....  1.0000e-06 Eh
Max. Gradient            TolMAXG  ....  1.0000e-04 Eh/bohr
RMS Gradient             TolRMSG  ....  3.0000e-05 Eh/bohr
Max. Displacement        TolMAXD  ....  1.0000e-03 bohr
RMS Displacement         TolRMSD  ....  6.0000e-04 bohr
Strict Convergence                .... False

------------------------------------------------------------------------------
                        ORCA OPTIMIZATION COORDINATE SETUP
------------------------------------------------------------------------------

The optimization will be done in redundant internal coordinates (2022)
Making redundant internal coordinates   ...  (2022 redundants) done
Evaluating the initial hessian          ...  (Almloef) done
Evaluating the coordinates              ...  done
Calculating the B-matrix                .... done
Calculating the G-matrix                .... done
The number of degrees of freedom        ....  290

    -----------------------------------------------------------------
                    Redundant Internal Coordinates


    -----------------------------------------------------------------
         Definition                    Initial Value    Approx d2E/dq
    -----------------------------------------------------------------
      1. B(B   1,B   0)                  1.5197         0.520577   
      2. B(B   2,B   1)                  1.6193         0.361063   
      3. B(B   3,B   2)                  1.6667         0.303352   
      4. B(B   4,B   3)                  1.5163         0.527135   
      5. B(B   4,B   2)                  1.9551         0.105155   
      6. B(B   5,B   1)                  1.9571         0.104376   
      7. B(B   5,B   0)                  1.6692         0.300568   
      8. B(B   5,B   4)                  1.6247         0.353884   
      9. B(B   6,B   5)                  1.6774         0.291610   
     10. B(B   6,B   0)                  1.6728         0.296628   
     11. B(B   7,B   6)                  1.6563         0.315146   
     12. B(B   7,B   1)                  1.9536         0.105741   
     13. B(B   7,B   0)                  1.6757         0.293460   
     14. B(B   8,B   7)                  1.6187         0.361804   
     15. B(B   8,B   2)                  1.9297         0.115429   
     16. B(B   9,B   8)                  1.5279         0.505175   
     17. B(B   9,B   3)                  1.6670         0.303038   
     18. B(B   9,B   2)                  1.6798         0.289123   
     19. B(B  10,B   9)                  1.6645         0.305747   
     20. B(B  10,B   8)                  1.9280         0.116159   
     21. B(B  10,B   4)                  1.9336         0.113775   
     22. B(B  10,B   3)                  1.6745         0.294738   
     23. B(B  11,B  10)                  1.6219         0.357649   
     24. B(B  11,B   7)                  1.9267         0.116722   
     25. B(B  11,B   6)                  1.5287         0.503631   
     26. B(B  11,B   5)                  1.9277         0.116293   
     27. A(B   1,B   0,B   5)           75.5569         0.382782   
     28. A(B   6,B   0,B   7)           59.2920         0.346267   
     29. A(B   1,B   0,B   6)          118.1695         0.381906   
     30. A(B   5,B   0,B   6)           60.2551         0.347665   
     31. A(B   1,B   0,B   7)           75.2001         0.381195   
     32. A(B   5,B   0,B   7)           82.8076         0.347037   
     33. A(B   0,B   1,B   5)           55.6833         0.320238   
     34. A(B   0,B   1,B   2)          136.9989         0.395232   
     35. A(B   5,B   1,B   7)           68.8992         0.250205   
     36. A(B   2,B   1,B   5)           90.0175         0.301860   
     37. A(B   0,B   1,B   7)           56.0280         0.320919   
     38. A(B   2,B   1,B   7)           89.8065         0.302487   
     39. A(B   3,B   2,B   8)           97.9048         0.298348   
     40. A(B   3,B   2,B   9)           59.7512         0.346706   
     41. A(B   3,B   2,B   4)           48.7015         0.293977   
     42. A(B   1,B   2,B   4)           86.9447         0.302218   
     43. A(B   4,B   2,B   9)           97.0705         0.291760   
     44. A(B   4,B   2,B   8)          104.0125         0.253713   
     45. A(B   1,B   2,B   3)          135.3090         0.359998   
     46. A(B   1,B   2,B   8)           86.6129         0.306765   
     47. A(B   8,B   2,B   9)           49.4916         0.296084   
     48. A(B   1,B   2,B   9)          135.6830         0.357067   
     49. A(B   9,B   3,B  10)           59.7540         0.347770   
     50. A(B   2,B   3,B  10)           83.1928         0.347830   
     51. A(B   4,B   3,B   9)          118.0169         0.384162   
     52. A(B   2,B   3,B   9)           60.5142         0.349463   
     53. A(B   2,B   3,B   4)           75.6279         0.384231   
     54. A(B   4,B   3,B  10)           74.4166         0.382312   
     55. A(B   3,B   4,B  10)           56.5291         0.325464   
     56. A(B   2,B   4,B  10)           69.5553         0.253175   
     57. A(B   3,B   4,B   5)          137.3691         0.394708   
     58. A(B   2,B   4,B   3)           55.6706         0.321284   
     59. A(B   2,B   4,B   5)           89.9289         0.301251   
     60. A(B   5,B   4,B  10)           90.3175         0.305070   
     61. A(B   4,B   5,B   6)          135.1301         0.356369   
     62. A(B   4,B   5,B  11)           86.0117         0.306143   
     63. A(B   1,B   5,B   4)           86.7267         0.300894   
     64. A(B   0,B   5,B   4)          135.0511         0.358207   
     65. A(B   6,B   5,B  11)           49.5840         0.296836   
     66. A(B   1,B   5,B   6)           97.5594         0.291812   
     67. A(B   0,B   5,B   1)           48.7598         0.293206   
     68. A(B   0,B   5,B   6)           59.9786         0.346668   
     69. A(B   1,B   5,B  11)          104.7222         0.253713   
     70. A(B   0,B   5,B  11)           98.2833         0.298264   
     71. A(B   5,B   6,B   7)           83.1442         0.349445   
     72. A(B   0,B   6,B   7)           60.4418         0.350452   
     73. A(B   5,B   6,B  11)           73.7545         0.378600   
     74. A(B   0,B   6,B   5)           59.7663         0.345899   
     75. A(B   7,B   6,B  11)           74.3253         0.383732   
     76. A(B   0,B   6,B  11)          116.6523         0.379720   
     77. A(B   1,B   7,B   6)           98.4239         0.296014   
     78. A(B   0,B   7,B   6)           60.2661         0.349818   
     79. A(B   0,B   7,B   1)           48.7718         0.292701   
     80. A(B   8,B   7,B  11)           87.4050         0.307416   
     81. A(B   6,B   7,B  11)           49.8116         0.300696   
     82. A(B   1,B   7,B  11)          104.8966         0.254336   
     83. A(B   0,B   7,B  11)           98.0945         0.297307   
     84. A(B   6,B   7,B   8)          136.8018         0.362474   
     85. A(B   1,B   7,B   8)           85.8282         0.302586   
     86. A(B   0,B   7,B   8)          134.2634         0.358097   
     87. A(B   9,B   8,B  10)           56.1598         0.324299   
     88. A(B   7,B   8,B  10)           89.6889         0.307177   
     89. A(B   2,B   8,B  10)           70.1990         0.257465   
     90. A(B   7,B   8,B   9)          137.6879         0.393299   
     91. A(B   2,B   8,B   9)           56.7102         0.323964   
     92. A(B   2,B   8,B   7)           90.6705         0.306866   
     93. A(B   3,B   9,B  10)           60.3486         0.349927   
     94. A(B   2,B   9,B  10)           83.0977         0.347165   
     95. A(B   3,B   9,B   8)          116.5037         0.381333   
     96. A(B   2,B   9,B   8)           73.7982         0.378239   
     97. A(B   2,B   9,B   3)           59.7346         0.346646   
     98. A(B   8,B   9,B  10)           74.1650         0.381922   
     99. A(B   4,B  10,B   8)          104.8987         0.256916   
    100. A(B   3,B  10,B   8)           97.6992         0.297284   
    101. A(B   3,B  10,B   4)           49.0543         0.296309   
    102. A(B   9,B  10,B  11)          136.5332         0.359898   
    103. A(B   8,B  10,B  11)           87.2718         0.306607   
    104. A(B   4,B  10,B  11)           85.8919         0.305588   
    105. A(B   3,B  10,B  11)          134.5388         0.357658   
    106. A(B   8,B  10,B   9)           49.6751         0.299020   
    107. A(B   4,B  10,B   9)           98.4216         0.298037   
    108. A(B   3,B  10,B   9)           59.8973         0.348291   
    109. A(B   7,B  11,B  10)           89.6424         0.306846   
    110. A(B   6,B  11,B  10)          137.4285         0.392294   
    111. A(B   5,B  11,B  10)           90.6156         0.306664   
    112. A(B   6,B  11,B   7)           55.8631         0.324394   
    113. A(B   5,B  11,B   7)           70.0520         0.257934   
    114. A(B   5,B  11,B   6)           56.6615         0.324198   
    115. D(B   2,B   1,B   0,B   5)    -42.9954         0.014661   
    116. D(B   2,B   1,B   0,B   6)      1.0249         0.014661   
    117. D(B   7,B   1,B   0,B   5)    -86.2344         0.014661   
    118. D(B   5,B   1,B   0,B   7)     86.2344         0.014661   
    119. D(B   2,B   1,B   0,B   7)     43.2390         0.014661   
    120. D(B   5,B   1,B   0,B   6)     44.0203         0.014661   
    121. D(B   3,B   2,B   1,B   5)     10.7954         0.010000   
    122. D(B   8,B   2,B   1,B   0)    -52.7450         0.010000   
    123. D(B   4,B   2,B   1,B   7)     86.1186         0.010000   
    124. D(B   3,B   2,B   1,B   7)     79.6944         0.010000   
    125. D(B   4,B   2,B   1,B   0)     51.4996         0.010000   
    126. D(B   4,B   2,B   1,B   5)     17.2196         0.010000   
    127. D(B   3,B   2,B   1,B   0)     45.0754         0.010000   
    128. D(B   9,B   3,B   2,B   4)   -134.5836         0.010000   
    129. D(B   4,B   3,B   2,B   8)    101.7366         0.010000   
    130. D(B   9,B   3,B   2,B   1)   -126.0308         0.010000   
    131. D(B   4,B   3,B   2,B   9)    134.5836         0.010000   
    132. D(B  10,B   3,B   2,B   1)    -67.0466         0.010000   
    133. D(B   9,B   3,B   2,B   8)    -32.8470         0.010000   
    134. D(B   4,B   3,B   2,B   1)      8.5527         0.010000   
    135. D(B   5,B   4,B   3,B   2)    -41.9206         0.015026   
    136. D(B   5,B   4,B   2,B   9)    114.7827         0.010000   
    137. D(B   2,B   4,B   3,B   9)     44.6101         0.015026   
    138. D(B  10,B   4,B   3,B   2)    -86.8147         0.015026   
    139. D(B   5,B   4,B   2,B   3)    153.0966         0.010000   
    140. D(B   3,B   4,B   2,B   9)    -38.3139         0.010000   
    141. D(B   3,B   4,B   2,B   8)    -88.2488         0.010000   
    142. D(B   5,B   4,B   3,B   9)      2.6895         0.015026   
    143. D(B   3,B   4,B   2,B   1)   -173.9878         0.010000   
    144. D(B   2,B   4,B   3,B  10)     86.8147         0.015026   
    145. D(B   5,B   4,B   2,B   8)     64.8478         0.010000   
    146. D(B   5,B   4,B   2,B   1)    -20.8911         0.010000   
    147. D(B   5,B   4,B   3,B  10)     44.8941         0.015026   
    148. D(B   6,B   5,B   4,B   2)    -80.2667         0.010000   
    149. D(B   1,B   5,B   4,B  10)     86.7182         0.010000   
    150. D(B   1,B   5,B   4,B   3)     50.6490         0.010000   
    151. D(B   0,B   5,B   4,B   2)      9.8778         0.010000   
    152. D(B   6,B   5,B   1,B   0)    -38.0438         0.010000   
    153. D(B   0,B   5,B   4,B  10)     79.4323         0.010000   
    154. D(B   4,B   5,B   1,B   2)    -20.8731         0.010000   
    155. D(B   1,B   5,B   0,B   7)    -76.5045         0.010000   
    156. D(B   4,B   5,B   1,B   0)   -173.1570         0.010000   
    157. D(B   0,B   5,B   4,B   3)     43.3631         0.010000   
    158. D(B   4,B   5,B   1,B   7)   -110.6589         0.010000   
    159. D(B   1,B   5,B   4,B   2)     17.1636         0.010000   
    160. D(B   6,B   5,B   1,B   2)    114.2401         0.010000   
    161. D(B   0,B   5,B   1,B   2)    152.2839         0.010000   
    162. D(B   4,B   5,B   0,B   1)      9.6936         0.010000   
    163. D(B   6,B   5,B   0,B   7)     58.6202         0.010000   
    164. D(B   0,B   5,B   1,B   7)     62.4980         0.010000   
    165. D(B   4,B   5,B   0,B   7)    -66.8109         0.010000   
    166. D(B   6,B   5,B   0,B   1)    135.1246         0.010000   
    167. D(B   1,B   5,B   0,B   6)   -135.1246         0.010000   
    168. D(B   4,B   5,B   0,B   6)   -125.4311         0.010000   
    169. D(B   0,B   6,B   5,B   4)    125.3194         0.010000   
    170. D(B   0,B   6,B   5,B   1)     32.3578         0.010000   
    171. D(B  11,B   6,B   0,B   5)     49.0953         0.010000   
    172. D(B   5,B   6,B   0,B   7)    -99.8854         0.010000   
    173. D(B  11,B   6,B   0,B   1)     -1.7163         0.010000   
    174. D(B   5,B   6,B   0,B   1)    -50.8116         0.010000   
    175. D(B   7,B   6,B   0,B   5)     99.8854         0.010000   
    176. D(B   0,B   6,B   5,B  11)    135.2847         0.010000   
    177. D(B   7,B   6,B   0,B   1)     49.0739         0.010000   
    178. D(B   7,B   6,B   5,B  11)     75.6169         0.010000   
    179. D(B   7,B   6,B   5,B   4)     65.6516         0.010000   
    180. D(B   7,B   6,B   5,B   1)    -27.3101         0.010000   
    181. D(B   7,B   6,B   5,B   0)    -59.6678         0.010000   
    182. D(B   8,B   7,B   6,B   5)    -65.4556         0.010000   
    183. D(B   6,B   7,B   1,B   2)   -114.9366         0.010000   
    184. D(B   1,B   7,B   6,B   0)    -31.5862         0.010000   
    185. D(B   0,B   7,B   6,B   5)     59.0127         0.010000   
    186. D(B   8,B   7,B   1,B   2)     21.7905         0.010000   
    187. D(B   8,B   7,B   1,B   0)    173.9371         0.010000   
    188. D(B   1,B   7,B   6,B  11)    102.4209         0.010000   
    189. D(B   8,B   7,B   6,B   0)   -124.4683         0.010000   
    190. D(B   1,B   7,B   6,B   5)     27.4265         0.010000   
    191. D(B   6,B   7,B   1,B   0)     37.2100         0.010000   
    192. D(B   0,B   7,B   1,B   5)    -62.0532         0.010000   
    193. D(B   0,B   7,B   1,B   2)   -152.1466         0.010000   
    194. D(B   8,B   7,B   0,B   1)     -8.4586         0.010000   
    195. D(B   6,B   7,B   0,B   1)   -136.4554         0.010000   
    196. D(B   1,B   7,B   0,B   6)    136.4554         0.010000   
    197. D(B   1,B   7,B   0,B   5)     76.8982         0.010000   
    198. D(B   6,B   7,B   0,B   5)    -59.5572         0.010000   
    199. D(B   6,B   7,B   1,B   5)    -24.8432         0.010000   
    200. D(B   8,B   7,B   0,B   6)    127.9968         0.010000   
    201. D(B   0,B   7,B   6,B  11)    134.0071         0.010000   
    202. D(B   8,B   7,B   0,B   5)     68.4396         0.010000   
    203. D(B   9,B   8,B   7,B   6)     43.0930         0.010000   
    204. D(B   9,B   8,B   7,B   1)    -54.7755         0.010000   
    205. D(B   9,B   8,B   7,B   0)    -48.4070         0.010000   
    206. D(B   2,B   8,B   7,B  11)     86.9983         0.010000   
    207. D(B   2,B   8,B   7,B   6)     79.7179         0.010000   
    208. D(B   2,B   8,B   7,B   1)    -18.1506         0.010000   
    209. D(B   2,B   8,B   7,B   0)    -11.7821         0.010000   
    210. D(B   9,B   8,B   2,B   4)     87.3435         0.010000   
    211. D(B   9,B   8,B   2,B   3)     38.0434         0.010000   
    212. D(B   9,B   8,B   2,B   1)    173.3409         0.010000   
    213. D(B   7,B   8,B   2,B   9)   -151.2864         0.010000   
    214. D(B   7,B   8,B   2,B   4)    -63.9430         0.010000   
    215. D(B   7,B   8,B   2,B   3)   -113.2430         0.010000   
    216. D(B   7,B   8,B   2,B   1)     22.0544         0.010000   
    217. D(B  10,B   9,B   8,B   2)    -87.2676         0.013827   
    218. D(B   3,B   9,B   8,B  10)     44.2697         0.013827   
    219. D(B   3,B   9,B   8,B   2)    -42.9979         0.013827   
    220. D(B   2,B   9,B   8,B  10)     87.2676         0.013827   
    221. D(B   2,B   9,B   8,B   7)     45.5316         0.013827   
    222. D(B  10,B   9,B   3,B   2)     99.9090         0.010000   
    223. D(B   8,B   9,B   3,B  10)    -50.6002         0.010000   
    224. D(B   8,B   9,B   3,B   4)     -2.0917         0.010000   
    225. D(B   8,B   9,B   3,B   2)     49.3087         0.010000   
    226. D(B   2,B   9,B   3,B  10)    -99.9090         0.010000   
    227. D(B   2,B   9,B   3,B   4)    -51.4005         0.010000   
    228. D(B  10,B   9,B   2,B   1)     65.9225         0.010000   
    229. D(B   8,B   9,B   2,B   4)   -102.4121         0.010000   
    230. D(B   8,B   9,B   2,B   3)   -135.0402         0.010000   
    231. D(B   8,B   9,B   2,B   1)     -9.5376         0.010000   
    232. D(B   3,B   9,B   8,B   7)      2.5337         0.013827   
    233. D(B   3,B   9,B   2,B   8)    135.0402         0.010000   
    234. D(B   3,B   9,B   2,B   4)     32.6281         0.010000   
    235. D(B   3,B   9,B   2,B   1)    125.5026         0.010000   
    236. D(B   9,B  10,B   3,B   2)    -59.7209         0.010000   
    237. D(B   8,B  10,B   3,B   9)     33.5725         0.010000   
    238. D(B   8,B  10,B   3,B   4)   -103.0733         0.010000   
    239. D(B   8,B  10,B   3,B   2)    -26.1484         0.010000   
    240. D(B   4,B  10,B   3,B   9)    136.6458         0.010000   
    241. D(B   4,B  10,B   3,B   2)     76.9248         0.010000   
    242. D(B   8,B  10,B   9,B   3)   -134.0443         0.010000   
    243. D(B   8,B  10,B   9,B   2)    -75.0598         0.010000   
    244. D(B   4,B  10,B   9,B   8)    102.4304         0.010000   
    245. D(B   4,B  10,B   9,B   3)    -31.6139         0.010000   
    246. D(B   4,B  10,B   9,B   2)     27.3705         0.010000   
    247. D(B   3,B  10,B   9,B   8)    134.0443         0.010000   
    248. D(B   9,B  10,B   8,B   2)     62.5513         0.010000   
    249. D(B   4,B  10,B   8,B   9)    -88.4502         0.010000   
    250. D(B   4,B  10,B   8,B   7)     64.9258         0.010000   
    251. D(B   4,B  10,B   8,B   2)    -25.8989         0.010000   
    252. D(B   3,B  10,B   8,B   9)    -38.8669         0.010000   
    253. D(B   3,B  10,B   8,B   7)    114.5090         0.010000   
    254. D(B   3,B  10,B   8,B   2)     23.6844         0.010000   
    255. D(B   9,B  10,B   4,B   3)     36.8979         0.010000   
    256. D(B   3,B  10,B   9,B   2)     58.9844         0.010000   
    257. D(B   9,B  10,B   4,B   2)    -24.7399         0.010000   
    258. D(B   8,B  10,B   4,B   5)    -64.1544         0.010000   
    259. D(B   8,B  10,B   4,B   3)     87.2891         0.010000   
    260. D(B   8,B  10,B   4,B   2)     25.6513         0.010000   
    261. D(B   3,B  10,B   4,B   5)   -151.4435         0.010000   
    262. D(B   3,B  10,B   4,B   2)    -61.6378         0.010000   
    263. D(B   9,B  10,B   3,B   4)   -136.6458         0.010000   
    264. D(B   6,B  11,B  10,B   8)     50.0196         0.010000   
    265. D(B   6,B  11,B  10,B   3)    -48.1024         0.010000   
    266. D(B   5,B  11,B  10,B   9)     79.5740         0.010000   
    267. D(B   5,B  11,B  10,B   8)     86.8195         0.010000   
    268. D(B   5,B  11,B  10,B   3)    -11.3025         0.010000   
    269. D(B   6,B  11,B   7,B   8)   -173.4798         0.010000   
    270. D(B   6,B  11,B   7,B   1)    -88.4945         0.010000   
    271. D(B   5,B  11,B   7,B   8)   -110.8862         0.010000   
    272. D(B   5,B  11,B   7,B   6)     62.5936         0.010000   
    273. D(B   5,B  11,B   7,B   1)    -25.9008         0.010000   
    274. D(B   5,B  11,B   7,B   0)     23.4814         0.010000   
    275. D(B  10,B  11,B   6,B   5)     45.8052         0.013745   
    276. D(B  10,B  11,B   6,B   0)      2.9497         0.013745   
    277. D(B   7,B  11,B   6,B   5)     87.2848         0.013745   
    278. D(B   7,B  11,B   6,B   0)     44.4293         0.013745   
    279. D(B   5,B  11,B   6,B   7)    -87.2848         0.013745   
    280. D(B   6,B  11,B   7,B   0)    -39.1122         0.010000   
    281. D(B   5,B  11,B   6,B   0)    -42.8555         0.013745   
    282. D(B   7,B  11,B   5,B   6)    -61.5870         0.010000   
    283. D(B   7,B  11,B   5,B   4)    111.3833         0.010000   
    284. D(B   5,B  11,B  10,B   4)    -18.3389         0.010000   
    285. D(B   7,B  11,B   5,B   1)     25.8283         0.010000   
    286. D(B   7,B  11,B   5,B   0)    -23.5905         0.010000   
    287. D(B   6,B  11,B   5,B   4)    172.9703         0.010000   
    288. D(B   6,B  11,B  10,B   4)    -55.1388         0.010000   
    289. D(B   6,B  11,B   5,B   1)     87.4152         0.010000   
    290. D(B   6,B  11,B   5,B   0)     37.9965         0.010000   
    -----------------------------------------------------------------

Number of atoms                         .... 12
Number of degrees of freedom            .... 290


         *************************************************************
         *                GEOMETRY OPTIMIZATION CYCLE   1            *
         *************************************************************
---------------------------------
CARTESIAN COORDINATES (ANGSTROEM)
---------------------------------
  B      1.917394    0.585526    0.594879
  B      0.572657    1.093907    1.087467
  B     -0.989666    0.794534    0.784866
  B     -1.918433   -0.576433    0.596018
  B     -0.575472   -1.094352    1.072758
  B      0.994111   -0.792549    0.781033
  B      1.929505   -0.588763   -0.596381
  B      0.993075    0.763407   -0.791477
  B     -0.567333    1.087271   -1.075156
  B     -1.929842    0.592468   -0.592386
  B     -0.994468   -0.770584   -0.786957
  B      0.568470   -1.094433   -1.074664

----------------------------
CARTESIAN COORDINATES (A.U.)
----------------------------
  NO LB      ZA    FRAG     MASS         X           Y           Z
   0 B     5.0000    0    10.810    3.623350    1.106484    1.124158
   1 B     5.0000    0    10.810    1.082165    2.067186    2.055016
   2 B     5.0000    0    10.810   -1.870197    1.501452    1.483183
   3 B     5.0000    0    10.810   -3.625313   -1.089300    1.126311
   4 B     5.0000    0    10.810   -1.087484   -2.068025    2.027218
   5 B     5.0000    0    10.810    1.878598   -1.497701    1.475939
   6 B     5.0000    0    10.810    3.646237   -1.112600   -1.126998
   7 B     5.0000    0    10.810    1.876640    1.442629   -1.495674
   8 B     5.0000    0    10.810   -1.072105    2.054644   -2.031751
   9 B     5.0000    0    10.810   -3.646873    1.119602   -1.119447
  10 B     5.0000    0    10.810   -1.879271   -1.456192   -1.487133
  11 B     5.0000    0    10.810    1.074252   -2.068178   -2.030821

--------------------------------
INTERNAL COORDINATES (ANGSTROEM)
--------------------------------
 B      0   0   0     0.000000000000     0.00000000     0.00000000
 B      1   0   0     1.519675162674     0.00000000     0.00000000
 B      2   1   0     1.619272701906   136.99889413     0.00000000
 B      3   2   1     1.666680583961   135.30900782    45.07535802
 B      4   3   2     1.516267153159    75.62788353     8.55274366
 B      5   4   3     1.624739709951   137.36906771   318.07935834
 B      1   2   3     1.672782727340   118.16954091     1.02485080
 B      7   1   2     1.656298526965    60.44184890    49.07388240
 B      8   7   1     1.618714723926   136.80179388   235.53174917
 B      9   8   7     1.527850381551   137.68789152    43.09301254
 B     10   9   8     1.664539829847    74.16504408   318.26401670
 B      7   1   2     1.528683877913   116.65234828   358.28372299

---------------------------
INTERNAL COORDINATES (A.U.)
---------------------------
 B      0   0   0     0.000000000000     0.00000000     0.00000000
 B      1   0   0     2.871769869976     0.00000000     0.00000000
 B      2   1   0     3.059981942736   136.99889413     0.00000000
 B      3   2   1     3.149569856411   135.30900782    45.07535802
 B      4   3   2     2.865329665332    75.62788353     8.55274366
 B      5   4   3     3.070313090714   137.36906771   318.07935834
 B      1   2   3     3.161101236227   118.16954091     1.02485080
 B      7   1   2     3.129950611981    60.44184890    49.07388240
 B      8   7   1     3.058927517167   136.80179388   235.53174917
 B      9   8   7     2.887218794738   137.68789152    43.09301254
 B     10   9   8     3.145524417414    74.16504408   318.26401670
 B      7   1   2     2.888793874597   116.65234828   358.28372299

---------------------
BASIS SET INFORMATION
---------------------
There are 1 groups of distinct atoms

 Group   1 Type B   : 11s6p1d contracted to 5s3p1d pattern {62111/411/1}

Atom   0B    basis set group =>   1
Atom   1B    basis set group =>   1
Atom   2B    basis set group =>   1
Atom   3B    basis set group =>   1
Atom   4B    basis set group =>   1
Atom   5B    basis set group =>   1
Atom   6B    basis set group =>   1
Atom   7B    basis set group =>   1
Atom   8B    basis set group =>   1
Atom   9B    basis set group =>   1
Atom  10B    basis set group =>   1
Atom  11B    basis set group =>   1
---------------------------------
AUXILIARY/J BASIS SET INFORMATION
---------------------------------
There are 1 groups of distinct atoms

 Group   1 Type B   : 8s3p3d contracted to 6s3p3d pattern {311111/111/111}

Atom   0B    basis set group =>   1
Atom   1B    basis set group =>   1
Atom   2B    basis set group =>   1
Atom   3B    basis set group =>   1
Atom   4B    basis set group =>   1
Atom   5B    basis set group =>   1
Atom   6B    basis set group =>   1
Atom   7B    basis set group =>   1
Atom   8B    basis set group =>   1
Atom   9B    basis set group =>   1
Atom  10B    basis set group =>   1
Atom  11B    basis set group =>   1


           ************************************************************
           *        Program running with 8 parallel MPI-processes     *
           *              working on a common directory               *
           ************************************************************
------------------------------------------------------------------------------
                             ORCA STARTUP CALCULATIONS
                           -- RI-GTO INTEGRALS CHOSEN --
------------------------------------------------------------------------------
------------------------------------------------------------------------------
                   ___                                                        
                  /   \      - P O W E R E D   B Y -                         
                 /     \                                                     
                 |  |  |   _    _      __       _____    __    __             
                 |  |  |  | |  | |    /  \     |  _  \  |  |  /  |          
                  \  \/   | |  | |   /    \    | | | |  |  | /  /          
                 / \  \   | |__| |  /  /\  \   | |_| |  |  |/  /          
                |  |  |   |  __  | /  /__\  \  |    /   |      \           
                |  |  |   | |  | | |   __   |  |    \   |  |\   \          
                \     /   | |  | | |  |  |  |  | |\  \  |  | \   \       
                 \___/    |_|  |_| |__|  |__|  |_| \__\ |__|  \__/        
                                                                              
                      - O R C A' S   B I G   F R I E N D -                    
                                      &                                       
                       - I N T E G R A L  F E E D E R -                       
                                                                              
 v1 FN, 2020, v2 2021, v3 2022-2024                                           
------------------------------------------------------------------------------


----------------------
SHARK INTEGRAL PACKAGE
----------------------

Number of atoms                             ...     12
Number of basis functions                   ...    228
Number of shells                            ...    108
Maximum angular momentum                    ...      2
Integral batch strategy                     ... SHARK/LIBINT Hybrid
RI-J (if used) integral strategy            ... SPLIT-RIJ (Revised 2003 algorithm where possible)
Printlevel                                  ...      1
Contraction scheme used                     ... SEGMENTED contraction
Prescreening option                         ... SCHWARTZ
   Thresh                                   ... 2.500e-11
   Tcut                                     ... 2.500e-12
   Tpresel                                  ... 2.500e-12 
Coulomb Range Separation                    ... NOT USED
Exchange Range Separation                   ... NOT USED
Multipole approximations                    ... NOT USED
Finite Nucleus Model                        ... NOT USED
CABS basis                                  ... NOT available
Auxiliary Coulomb fitting basis             ... AVAILABLE
   # of basis functions in Aux-J            ...    360
   # of shells in Aux-J                     ...    144
   Maximum angular momentum in Aux-J        ...      2
Auxiliary J/K fitting basis                 ... NOT available
Auxiliary Correlation fitting basis         ... NOT available
Auxiliary 'external' fitting basis          ... NOT available

Checking pre-screening integrals            ... done (  0.0 sec) Dimension = 108
   => SHARK Basis and OBASIS are compatible. Storing Pre-screening
Shell pair information
Shell pair cut-off parameter TPreSel        ...   2.5e-12
Total number of shell pairs                 ...      5886
Shell pairs after pre-screening             ...      5702
Total number of primitive shell pairs       ...     23700
Primitive shell pairs kept                  ...     16970
          la=0 lb=0:   1662 shell pairs
          la=1 lb=0:   2152 shell pairs
          la=1 lb=1:    666 shell pairs
          la=2 lb=0:    712 shell pairs
          la=2 lb=1:    432 shell pairs
          la=2 lb=2:     78 shell pairs

Checking whether 4 symmetric matrices of dimension 228 fit in memory
:Max Core in MB      =   1500.00
 MB in use           =      7.44
 MB left             =   1492.56
 MB needed           =      0.80
 Data fit in memory  = YES
Calculating RI/J V-Matrix + Cholesky decomp.... done (  0.0 sec)
Calculating Nuclear repulsion               ... done (  0.0 sec) ENN=    381.939314189872 Eh

Diagonalization of the overlap matrix:
Smallest eigenvalue                        ... 3.166e-06
Time for diagonalization                   ...    0.002 sec
Threshold for overlap eigenvalues          ... 1.000e-07
Number of eigenvalues below threshold      ... 0
Time for construction of square roots      ...    0.003 sec
Total time needed                          ...    0.007 sec

-------------------
DFT GRID GENERATION
-------------------

General Integration Accuracy     IntAcc      ... 4.388
Radial Grid Type                 RadialGrid  ... OptM3 with GC (2021)
Angular Grid (max. ang.)         AngularGrid ... 4 (Lebedev-302)
Angular grid pruning method      GridPruning ... 4 (adaptive)
Weight generation scheme         WeightScheme... mBecke (2022)
Basis function cutoff            BFCut       ... 1.0000e-11
Integration weight cutoff        WCut        ... 1.0000e-14
Partially contracted basis set               ... off
Rotationally invariant grid construction     ... off
Angular grids for H and He will be reduced by one unit

Total number of grid points                  ...    69973
Total number of batches                      ...     1099
Average number of points per batch           ...       63
Average number of grid points per atom       ...     5831
Grids setup in   0.4 sec
Initializing property integral containers    ... done (  0.0 sec)

SHARK setup successfully completed in   0.5 seconds

Maximum memory used throughout the entire STARTUP-calculation: 20.5 MB


           ************************************************************
           *        Program running with 8 parallel MPI-processes     *
           *              working on a common directory               *
           ************************************************************
-------------------------------------------------------------------------------
                                 ORCA GUESS
                   Start orbitals & Density for SCF / CASSCF
-------------------------------------------------------------------------------

------------
SCF SETTINGS
------------
Hamiltonian:
 Density Functional     Method          .... DFT(GTOs)
  Functional kind                       .... Exchange
  Functional name                       .... Re-regularized SCAN exchange by Furness et al
  Functional family                     .... MGGA
  Functional refs                              
    [ 0] J. W. Furness, A. D. Kaplan, J. Ning, J. P. Perdew, and J. Sun.,  J. Phys. Chem. Lett. 11, 8208-8215 (2020), doi: 10.1021/acs.jpclett.0c02405
    [ 1] J. W. Furness, A. D. Kaplan, J. Ning, J. P. Perdew, and J. Sun.,  J. Phys. Chem. Lett. 11, 9248-9248 (2020), doi: 10.1021/acs.jpclett.0c03077
  Functional external parameters        .... 6
    Parameter  0 _c1        =  6.670000e-01 : c1 parameter        
    Parameter  1 _c2        =  8.000000e-01 : c2 parameter        
    Parameter  2 _d         =  1.240000e+00 : d parameter         
    Parameter  3 _k1        =  6.500000e-02 : k1 parameter        
    Parameter  4 _eta       =  1.000000e-03 : eta parameter       
    Parameter  5 _dp2       =  3.610000e-01 : dp2 parameter       
  Functional kind                       .... Correlation
  Functional name                       .... Re-regularized SCAN correlation by Furness et al
  Functional family                     .... MGGA
  Functional refs                              
    [ 0] J. W. Furness, A. D. Kaplan, J. Ning, J. P. Perdew, and J. Sun.,  J. Phys. Chem. Lett. 11, 8208-8215 (2020), doi: 10.1021/acs.jpclett.0c02405
    [ 1] J. W. Furness, A. D. Kaplan, J. Ning, J. P. Perdew, and J. Sun.,  J. Phys. Chem. Lett. 11, 9248-9248 (2020), doi: 10.1021/acs.jpclett.0c03077
  Functional external parameters        .... 1
    Parameter  0 _eta       =  1.000000e-03 : Regularization parameter
 Gradients option       PostSCFGGA      .... off
 RI-approximation to the Coulomb term is turned on
   Number of AuxJ basis functions       .... 360


General Settings:
 Integral files         IntName         .... b12_hexagonal_prism_m1_refine
 Hartree-Fock type      HFTyp           .... RHF
 Total Charge           Charge          ....    0
 Multiplicity           Mult            ....    1
 Number of Electrons    NEL             ....   60
 Basis Dimension        Dim             ....  228
 Nuclear Repulsion      ENuc            ....    381.9393141899 Eh

Convergence Acceleration:
 AO-DIIS                CNVDIIS         .... on
   Start iteration      DIISMaxIt       ....    12
   Startup error        DIISStart       ....  0.200000
   # of expansion vecs  DIISMaxEq       ....     5
   Bias factor          DIISBfac        ....   1.050
   Max. coefficient     DIISMaxC        ....  10.000
 MO-DIIS                CNVKDIIS        .... off
 Trust-Rad. Augm. Hess. CNVTRAH         .... auto
   Auto Start mean grad. ratio tolernc. ....  1.125000
   Auto Start start iteration           ....    50
   Auto Start num. interpolation iter.  ....    10
   Max. Number of Micro iterations      ....    24
   Max. Number of Macro iterations      .... Maxiter - #DIIS iter
   Number of Davidson start vectors     ....     2
   Converg. threshold    (grad. norm)   ....   1.000e-05
   Grad. Scal. Fac. for Micro threshold ....   0.100
   Minimum threshold for Micro iter.    ....   1.000e-02
   NR start threshold (gradient norm)   ....   1.000e-04
   Initial trust radius                 ....   0.400
   Minimum AH scaling param. (alpha)    ....   1.000
   Maximum AH scaling param. (alpha)    .... 1000.000
   Quad. conv. algorithm                .... NR
   White noise on init. David. guess    .... on
   Maximum white noise                  ....   0.010
   Pseudo random numbers                .... off
   Inactive MOs                         .... canonical
   Orbital update algorithm             .... Taylor
   Preconditioner                       .... Diag
   Full preconditioner red. dimension   ....   250
   COSX micro iterations for RIJONX calc.... off
 SOSCF                 CNVSOSCF           .... on
   Start iteration     SOSCFMaxIt         ....   150
   Startup grad/error  SOSCFStart         ....  0.003300
   Hessian update      SOSCFHessUp        .... L-BFGS
   Autom. constraints  SOSCFAutoConstrain .... off
 Level Shifting         CNVShift        .... on
   Level shift para.    LevelShift      ....    0.2500
   Turn off err/grad.   ShiftErr        ....    0.0010
 Zerner damping         CNVZerner       .... off
 Static damping         CNVDamp         .... on
   Fraction old density DampFac         ....    0.7000
   Max. Damping (<1)    DampMax         ....    0.9800
   Min. Damping (>=0)   DampMin         ....    0.0000
   Turn off err/grad.   DampErr         ....    0.1000

SCF Procedure:
 Maximum # iterations   MaxIter         ....   125
 SCF integral mode      SCFMode         .... Direct
   Integral package                     .... SHARK and LIBINT hybrid scheme
 Reset frequency        DirectResetFreq ....    20
 Integral Threshold     Thresh          ....  2.500e-11 Eh
 Primitive CutOff       TCut            ....  2.500e-12 Eh

Convergence Tolerance:
 Convergence Check Mode ConvCheckMode   .... Total+1el-Energy
 Convergence forced     ConvForced      .... 0
 Energy Change          TolE            ....  1.000e-08 Eh
 1-El. energy change                    ....  1.000e-05 Eh
 Orbital Gradient       TolG            ....  1.000e-05
 Orbital Rotation angle TolX            ....  1.000e-05
 DIIS Error             TolErr          ....  5.000e-07

------------------------------
INITIAL GUESS: MODEL POTENTIAL
------------------------------
Loading Hartree-Fock densities                     ... done
Calculating cut-offs                               ... done
Initializing the effective Hamiltonian             ... done
Setting up the integral package (SHARK)            ... done
Starting the Coulomb interaction                   ... done (   0.0 sec)
Making the grid                                    ... done (   0.1 sec)
Mapping shells                                     ... done
Starting the XC term evaluation                    ... done (   0.1 sec)
  promolecular density results
     # of electrons  =     60.008922083
     EX              =    -45.856153224
     EC              =     -1.915271269
     EX+EC           =    -47.771424494
Transforming the Hamiltonian                       ... done (   0.0 sec)
Diagonalizing the Hamiltonian                      ... done (   0.0 sec)
Back transforming the eigenvectors                 ... done (   0.0 sec)
Now organizing SCF variables                       ... done
                      ------------------
                      INITIAL GUESS DONE (   0.2 sec)
                      ------------------
             **** ENERGY FILE WAS UPDATED (b12_hexagonal_prism_m1_refine.en.tmp) ****
Finished Guess after   0.3 sec
Maximum memory used throughout the entire GUESS-calculation: 10.9 MB


           ************************************************************
           *        Program running with 8 parallel MPI-processes     *
           *              working on a common directory               *
           ************************************************************

-------------------------------------------------------------------------------------------
                                      ORCA LEAN-SCF
                              memory conserving SCF solver
-------------------------------------------------------------------------------------------

----------------------------------------D-I-I-S--------------------------------------------
Iteration    Energy (Eh)           Delta-E    RMSDP     MaxDP     DIISErr   Damp  Time(sec)
-------------------------------------------------------------------------------------------
               ***  Starting incremental Fock matrix formation  ***
    1    -297.3009722759489364     0.00e+00  2.06e-01  2.29e+00  1.53e-01  0.700   0.5
Warning: op=0 Small HOMO/LUMO gap (   0.038) - skipping pre-diagonalization
         Will do a full diagonalization
    2    -297.5481546241322235    -2.47e-01  1.66e-01  1.95e+00  7.08e-02  0.700   0.5
                               ***Turning on AO-DIIS***
    3    -297.6337221516137674    -8.56e-02  7.75e-02  1.02e+00  2.57e-02  0.700   0.6
    4    -297.6823656131177245    -4.86e-02  1.19e-01  1.67e+00  1.29e-02  0.000   0.5
    5    -297.7958247667342562    -1.13e-01  8.26e-03  8.00e-02  9.55e-03  0.000   0.5
                              *** Initializing SOSCF ***
---------------------------------------S-O-S-C-F--------------------------------------
Iteration    Energy (Eh)           Delta-E    RMSDP     MaxDP     MaxGrad    Time(sec)
--------------------------------------------------------------------------------------
    6    -297.7984584388050848    -2.63e-03  5.82e-03  8.18e-02  2.89e-03     0.5
               *** Restarting incremental Fock matrix formation ***
    7    -297.7987704647077294    -3.12e-04  9.18e-03  1.19e-01  9.43e-04     0.5
    8    -297.7987897841337031    -1.93e-05  4.49e-03  5.66e-02  9.08e-04     0.4
    9    -297.7988220430267461    -3.23e-05  9.26e-04  9.34e-03  2.69e-04     0.4
   10    -297.7988191332090651     2.91e-06  1.62e-03  1.86e-02  4.06e-04     0.4
   11    -297.7988250303822610    -5.90e-06  2.04e-04  2.86e-03  7.08e-05     0.4
   12    -297.7988246359258824     3.94e-07  1.94e-04  2.12e-03  1.72e-04     0.4
   13    -297.7988251682400573    -5.32e-07  1.03e-04  1.18e-03  3.50e-05     0.4
   14    -297.7988251272062712     4.10e-08  1.03e-04  1.45e-03  3.60e-05     0.4
   15    -297.7988252202248418    -9.30e-08  4.28e-04  7.00e-03  2.33e-06     0.4
                  *** Gradient check signals convergence ***

               *****************************************************
               *                     SUCCESS                       *
               *           SCF CONVERGED AFTER  15 CYCLES          *
               *****************************************************

             **** ENERGY FILE WAS UPDATED (b12_hexagonal_prism_m1_refine.en.tmp) ****

----------------
TOTAL SCF ENERGY
----------------

Total Energy       :       -297.79882521987582 Eh           -8103.51801 eV

Components:
Nuclear Repulsion  :        381.93931418987205 Eh           10393.09711 eV
Electronic Energy  :       -679.73813940974787 Eh          -18496.61512 eV
One Electron Energy:      -1152.49681210209428 Eh          -31361.03262 eV
Two Electron Energy:        472.75867269234635 Eh           12864.41750 eV

Virial components:
Potential Energy   :       -594.18947766786891 Eh          -16168.71769 eV
Kinetic Energy     :        296.39065244799309 Eh            8065.19968 eV
Virial Ratio       :          2.00475107011727

DFT components:
N(Alpha)           :       29.999971090120 electrons
N(Beta)            :       29.999971090120 electrons
N(Total)           :       59.999942180240 electrons
E(X)               :      -46.833295957396 Eh       
E(C)               :       -1.913708280629 Eh       
E(XC)              :      -48.747004238025 Eh       

---------------
SCF CONVERGENCE
---------------

  Last Energy change         ...    9.3019e-08  Tolerance :   1.0000e-08
  Last MAX-Density change    ...    7.0006e-03  Tolerance :   1.0000e-07
  Last RMS-Density change    ...    4.2843e-04  Tolerance :   5.0000e-09
  Last DIIS Error            ...    2.8948e-03  Tolerance :   5.0000e-07
  Last Orbital Gradient      ...    2.3330e-06  Tolerance :   1.0000e-05
  Last Orbital Rotation      ...    1.3305e-05  Tolerance :   1.0000e-05


----------------
ORBITAL ENERGIES
----------------

  NO   OCC          E(Eh)            E(eV) 
   0   2.0000      -6.678938      -181.7431 
   1   2.0000      -6.678413      -181.7288 
   2   2.0000      -6.678186      -181.7227 
   3   2.0000      -6.677252      -181.6973 
   4   2.0000      -6.662979      -181.3089 
   5   2.0000      -6.662295      -181.2903 
   6   2.0000      -6.661883      -181.2790 
   7   2.0000      -6.661586      -181.2710 
   8   2.0000      -6.661242      -181.2616 
   9   2.0000      -6.660745      -181.2481 
  10   2.0000      -6.658679      -181.1919 
  11   2.0000      -6.657943      -181.1718 
  12   2.0000      -0.790670       -21.5152 
  13   2.0000      -0.717609       -19.5271 
  14   2.0000      -0.573032       -15.5930 
  15   2.0000      -0.571332       -15.5467 
  16   2.0000      -0.529980       -14.4215 
  17   2.0000      -0.458609       -12.4794 
  18   2.0000      -0.457904       -12.4602 
  19   2.0000      -0.375068       -10.2061 
  20   2.0000      -0.358954        -9.7676 
  21   2.0000      -0.345948        -9.4137 
  22   2.0000      -0.344471        -9.3735 
  23   2.0000      -0.339429        -9.2363 
  24   2.0000      -0.338449        -9.2097 
  25   2.0000      -0.314958        -8.5704 
  26   2.0000      -0.288705        -7.8561 
  27   2.0000      -0.245167        -6.6713 
  28   2.0000      -0.216162        -5.8821 
  29   2.0000      -0.215040        -5.8515 
  30   0.0000      -0.166570        -4.5326 
  31   0.0000      -0.109456        -2.9784 
  32   0.0000      -0.107524        -2.9259 
  33   0.0000      -0.076733        -2.0880 
  34   0.0000      -0.058819        -1.6006 
  35   0.0000      -0.057791        -1.5726 
  36   0.0000      -0.054899        -1.4939 
  37   0.0000      -0.020574        -0.5598 
  38   0.0000      -0.019726        -0.5368 
  39   0.0000      -0.008707        -0.2369 
  40   0.0000       0.000891         0.0242 
*Only the first 10 virtual orbitals were printed.

                    ********************************
                    * MULLIKEN POPULATION ANALYSIS *
                    ********************************

-----------------------
MULLIKEN ATOMIC CHARGES
-----------------------
   0 B :    0.121420
   1 B :   -0.654520
   2 B :    0.533466
   3 B :    0.116459
   4 B :   -0.670001
   5 B :    0.530106
   6 B :    0.149563
   7 B :    0.545480
   8 B :   -0.698129
   9 B :    0.157039
  10 B :    0.559815
  11 B :   -0.690698
Sum of atomic charges:   -0.0000000

--------------------------------
MULLIKEN REDUCED ORBITAL CHARGES
--------------------------------
  0 B s       :     2.529485  s :     2.529485
      pz      :     0.734709  p :     2.308742
      px      :     0.834088
      py      :     0.739945
      dz2     :     0.008739  d :     0.040353
      dxz     :     0.008917
      dyz     :     0.004504
      dx2y2   :     0.009291
      dxy     :     0.008901

  1 B s       :     3.663157  s :     3.663157
      pz      :     0.528040  p :     1.958874
      px      :     0.902115
      py      :     0.528719
      dz2     :     0.007776  d :     0.032489
      dxz     :     0.006714
      dyz     :     0.003077
      dx2y2   :     0.008335
      dxy     :     0.006588

  2 B s       :     2.316654  s :     2.316654
      pz      :     0.650696  p :     2.108953
      px      :     0.811857
      py      :     0.646400
      dz2     :     0.009903  d :     0.040927
      dxz     :     0.006755
      dyz     :     0.007931
      dx2y2   :     0.009624
      dxy     :     0.006714

  3 B s       :     2.527319  s :     2.527319
      pz      :     0.737291  p :     2.315467
      px      :     0.836506
      py      :     0.741670
      dz2     :     0.008855  d :     0.040756
      dxz     :     0.009024
      dyz     :     0.004505
      dx2y2   :     0.009377
      dxy     :     0.008996

  4 B s       :     3.672785  s :     3.672785
      pz      :     0.533252  p :     1.964373
      px      :     0.902715
      py      :     0.528407
      dz2     :     0.007871  d :     0.032842
      dxz     :     0.006842
      dyz     :     0.003116
      dx2y2   :     0.008414
      dxy     :     0.006599

  5 B s       :     2.318953  s :     2.318953
      pz      :     0.653685  p :     2.109989
      px      :     0.811177
      py      :     0.645127
      dz2     :     0.009941  d :     0.040952
      dxz     :     0.006731
      dyz     :     0.007985
      dx2y2   :     0.009590
      dxy     :     0.006706

  6 B s       :     2.494586  s :     2.494586
      pz      :     0.735396  p :     2.314901
      px      :     0.839628
      py      :     0.739878
      dz2     :     0.008850  d :     0.040950
      dxz     :     0.009095
      dyz     :     0.004415
      dx2y2   :     0.009556
      dxy     :     0.009034

  7 B s       :     2.300386  s :     2.300386
      pz      :     0.652232  p :     2.112536
      px      :     0.810959
      py      :     0.649345
      dz2     :     0.009961  d :     0.041598
      dxz     :     0.006817
      dyz     :     0.008103
      dx2y2   :     0.009800
      dxy     :     0.006918

  8 B s       :     3.694898  s :     3.694898
      pz      :     0.537806  p :     1.970111
      px      :     0.896972
      py      :     0.535334
      dz2     :     0.007930  d :     0.033120
      dxz     :     0.006803
      dyz     :     0.003132
      dx2y2   :     0.008373
      dxy     :     0.006882

  9 B s       :     2.494352  s :     2.494352
      pz      :     0.735136  p :     2.307763
      px      :     0.834384
      py      :     0.738243
      dz2     :     0.008862  d :     0.040846
      dxz     :     0.009053
      dyz     :     0.004423
      dx2y2   :     0.009494
      dxy     :     0.009015

 10 B s       :     2.285740  s :     2.285740
      pz      :     0.653384  p :     2.112822
      px      :     0.811394
      py      :     0.648044
      dz2     :     0.010065  d :     0.041622
      dxz     :     0.006827
      dyz     :     0.008100
      dx2y2   :     0.009695
      dxy     :     0.006935

 11 B s       :     3.680615  s :     3.680615
      pz      :     0.537286  p :     1.976791
      px      :     0.902435
      py      :     0.537070
      dz2     :     0.007935  d :     0.033292
      dxz     :     0.006878
      dyz     :     0.003182
      dx2y2   :     0.008407
      dxy     :     0.006889



                     *******************************
                     * LOEWDIN POPULATION ANALYSIS *
                     *******************************

----------------------
LOEWDIN ATOMIC CHARGES
----------------------
   0 B :   -0.065698
   1 B :    0.054396
   2 B :    0.013550
   3 B :   -0.067013
   4 B :    0.050005
   5 B :    0.014052
   6 B :   -0.057639
   7 B :    0.009630
   8 B :    0.046090
   9 B :   -0.057154
  10 B :    0.011738
  11 B :    0.048045

-------------------------------
LOEWDIN REDUCED ORBITAL CHARGES
-------------------------------
  0 B s       :     2.677083  s :     2.677083
      pz      :     0.826082  p :     2.310654
      px      :     0.652287
      py      :     0.832285
      dz2     :     0.016977  d :     0.077961
      dxz     :     0.017172
      dyz     :     0.008732
      dx2y2   :     0.017819
      dxy     :     0.017261

  1 B s       :     2.750617  s :     2.750617
      pz      :     0.593221  p :     2.131157
      px      :     0.942701
      py      :     0.595234
      dz2     :     0.014425  d :     0.063830
      dxz     :     0.013858
      dyz     :     0.006081
      dx2y2   :     0.015729
      dxy     :     0.013738

  2 B s       :     2.676678  s :     2.676678
      pz      :     0.727469  p :     2.232531
      px      :     0.783103
      py      :     0.721960
      dz2     :     0.018982  d :     0.077241
      dxz     :     0.013137
      dyz     :     0.013394
      dx2y2   :     0.018692
      dxy     :     0.013037

  3 B s       :     2.675769  s :     2.675769
      pz      :     0.827033  p :     2.312585
      px      :     0.653338
      py      :     0.832214
      dz2     :     0.017226  d :     0.078659
      dxz     :     0.017258
      dyz     :     0.008757
      dx2y2   :     0.017942
      dxy     :     0.017476

  4 B s       :     2.747145  s :     2.747145
      pz      :     0.601738  p :     2.138272
      px      :     0.940541
      py      :     0.595994
      dz2     :     0.014762  d :     0.064578
      dxz     :     0.013937
      dyz     :     0.006164
      dx2y2   :     0.015887
      dxy     :     0.013828

  5 B s       :     2.676636  s :     2.676636
      pz      :     0.727751  p :     2.232022
      px      :     0.782701
      py      :     0.721569
      dz2     :     0.019036  d :     0.077290
      dxz     :     0.013065
      dyz     :     0.013546
      dx2y2   :     0.018638
      dxy     :     0.013005

  6 B s       :     2.676056  s :     2.676056
      pz      :     0.823959  p :     2.302774
      px      :     0.648864
      py      :     0.829952
      dz2     :     0.017182  d :     0.078809
      dxz     :     0.017318
      dyz     :     0.008518
      dx2y2   :     0.018166
      dxy     :     0.017625

  7 B s       :     2.674344  s :     2.674344
      pz      :     0.722508  p :     2.237341
      px      :     0.783979
      py      :     0.730853
      dz2     :     0.019070  d :     0.078685
      dxz     :     0.013220
      dyz     :     0.013766
      dx2y2   :     0.019110
      dxy     :     0.013519

  8 B s       :     2.744007  s :     2.744007
      pz      :     0.605484  p :     2.144775
      px      :     0.938438
      py      :     0.600852
      dz2     :     0.014927  d :     0.065129
      dxz     :     0.013856
      dyz     :     0.006158
      dx2y2   :     0.015988
      dxy     :     0.014201

  9 B s       :     2.677162  s :     2.677162
      pz      :     0.823768  p :     2.301390
      px      :     0.649630
      py      :     0.827992
      dz2     :     0.017154  d :     0.078602
      dxz     :     0.017270
      dyz     :     0.008569
      dx2y2   :     0.018126
      dxy     :     0.017484

 10 B s       :     2.673797  s :     2.673797
      pz      :     0.727188  p :     2.235855
      px      :     0.779817
      py      :     0.728849
      dz2     :     0.019306  d :     0.078610
      dxz     :     0.013235
      dyz     :     0.013693
      dx2y2   :     0.018865
      dxy     :     0.013511

 11 B s       :     2.744254  s :     2.744254
      pz      :     0.604950  p :     2.142370
      px      :     0.935296
      py      :     0.602125
      dz2     :     0.014928  d :     0.065331
      dxz     :     0.013947
      dyz     :     0.006228
      dx2y2   :     0.015998
      dxy     :     0.014230



                      *****************************
                      * MAYER POPULATION ANALYSIS *
                      *****************************

  NA   - Mulliken gross atomic population
  ZA   - Total nuclear charge
  QA   - Mulliken gross atomic charge
  VA   - Mayer's total valence
  BVA  - Mayer's bonded valence
  FA   - Mayer's free valence

  ATOM       NA         ZA         QA         VA         BVA        FA
  0 B      4.8786     5.0000     0.1214     3.9406     3.9406    -0.0000
  1 B      5.6545     5.0000    -0.6545     4.1825     4.1825    -0.0000
  2 B      4.4665     5.0000     0.5335     2.2546     2.2546     0.0000
  3 B      4.8835     5.0000     0.1165     3.9637     3.9637    -0.0000
  4 B      5.6700     5.0000    -0.6700     4.1976     4.1976    -0.0000
  5 B      4.4699     5.0000     0.5301     2.2525     2.2525     0.0000
  6 B      4.8504     5.0000     0.1496     3.9502     3.9502    -0.0000
  7 B      4.4545     5.0000     0.5455     2.1947     2.1947     0.0000
  8 B      5.6981     5.0000    -0.6981     4.1995     4.1995    -0.0000
  9 B      4.8430     5.0000     0.1570     3.9022     3.9022    -0.0000
 10 B      4.4402     5.0000     0.5598     2.1558     2.1558     0.0000
 11 B      5.6907     5.0000    -0.6907     4.2020     4.2020    -0.0000

  Mayer bond orders larger than 0.100000
B(  0-B ,  1-B ) :   1.8533 B(  0-B ,  2-B ) :  -0.6219 B(  0-B ,  3-B ) :   0.5742 
B(  0-B ,  4-B ) :   0.1882 B(  0-B ,  5-B ) :   0.5132 B(  0-B ,  6-B ) :   0.2895 
B(  0-B ,  7-B ) :   0.4981 B(  0-B ,  8-B ) :   0.2148 B(  0-B ,  9-B ) :   0.5736 
B(  0-B , 10-B ) :  -0.6435 B(  0-B , 11-B ) :   0.5011 B(  1-B ,  2-B ) :   0.4634 
B(  1-B ,  3-B ) :   0.1903 B(  1-B ,  4-B ) :   0.5802 B(  1-B ,  5-B ) :  -0.2509 
B(  1-B ,  6-B ) :   0.4874 B(  1-B ,  7-B ) :  -0.2725 B(  1-B ,  8-B ) :   0.6091 
B(  1-B ,  9-B ) :   0.1746 B(  1-B , 10-B ) :  -0.1619 B(  1-B , 11-B ) :   0.5096 
B(  2-B ,  3-B ) :   0.5114 B(  2-B ,  4-B ) :  -0.2505 B(  2-B ,  5-B ) :   0.9378 
B(  2-B ,  6-B ) :  -0.6417 B(  2-B ,  7-B ) :   0.9592 B(  2-B ,  8-B ) :  -0.2663 
B(  2-B ,  9-B ) :   0.5151 B(  2-B , 10-B ) :   0.8312 B(  2-B , 11-B ) :  -0.1831 
B(  3-B ,  4-B ) :   1.8619 B(  3-B ,  5-B ) :  -0.6334 B(  3-B ,  6-B ) :   0.5956 
B(  3-B ,  7-B ) :  -0.6565 B(  3-B ,  8-B ) :   0.5168 B(  3-B ,  9-B ) :   0.3047 
B(  3-B , 10-B ) :   0.4840 B(  3-B , 11-B ) :   0.2147 B(  4-B ,  5-B ) :   0.4549 
B(  4-B ,  6-B ) :   0.1833 B(  4-B ,  7-B ) :  -0.1620 B(  4-B ,  8-B ) :   0.5235 
B(  4-B ,  9-B ) :   0.4719 B(  4-B , 10-B ) :  -0.2641 B(  4-B , 11-B ) :   0.6104 
B(  5-B ,  6-B ) :   0.5152 B(  5-B ,  7-B ) :   0.8299 B(  5-B ,  8-B ) :  -0.1909 
B(  5-B ,  9-B ) :  -0.6278 B(  5-B , 10-B ) :   0.9537 B(  5-B , 11-B ) :  -0.2491 
B(  6-B ,  7-B ) :   0.5296 B(  6-B ,  8-B ) :   0.2064 B(  6-B ,  9-B ) :   0.5852 
B(  6-B , 10-B ) :  -0.6445 B(  6-B , 11-B ) :   1.8442 B(  7-B ,  8-B ) :   0.4061 
B(  7-B ,  9-B ) :  -0.6458 B(  7-B , 10-B ) :   0.9833 B(  7-B , 11-B ) :  -0.2747 
B(  8-B ,  9-B ) :   1.8425 B(  8-B , 10-B ) :  -0.2926 B(  8-B , 11-B ) :   0.6303 
B(  9-B , 10-B ) :   0.5099 B(  9-B , 11-B ) :   0.1984 B( 10-B , 11-B ) :   0.4003 


-------
TIMINGS
-------

Total SCF time: 0 days 0 hours 0 min 7 sec 

Total time                  ....       7.332 sec
Sum of individual times     ....       6.935 sec  ( 94.6%)

SCF preparation             ....       0.111 sec  (  1.5%)
Fock matrix formation       ....       5.709 sec  ( 77.9%)
  Startup                   ....       0.030 sec  (  0.5% of F)
  Split-RI-J                ....       0.786 sec  ( 13.8% of F)
  XC integration            ....       4.832 sec  ( 84.6% of F)
    Basis function eval.    ....       0.571 sec  ( 11.8% of XC)
    Density eval.           ....       1.482 sec  ( 30.7% of XC)
    XC-Functional eval.     ....       0.129 sec  (  2.7% of XC)
    XC-Potential eval.      ....       1.886 sec  ( 39.0% of XC)
Diagonalization             ....       0.000 sec  (  0.0%)
Density matrix formation    ....       0.273 sec  (  3.7%)
Total Energy calculation    ....       0.124 sec  (  1.7%)
Population analysis         ....       0.056 sec  (  0.8%)
Orbital Transformation      ....       0.045 sec  (  0.6%)
Orbital Orthonormalization  ....       0.000 sec  (  0.0%)
DIIS solution               ....       0.255 sec  (  3.5%)
SOSCF solution              ....       0.362 sec  (  4.9%)
Finished LeanSCF after   7.4 sec

Maximum memory used throughout the entire LEANSCF-calculation: 13.2 MB


-------------------------------------------------------------------------------
                          DFT DISPERSION CORRECTION                            
                                                                               
                                DFTD4 V3.4.0                                   
-------------------------------------------------------------------------------
The R2SCAN3C composite method is recognized
Using three-body term ABC
Active option DFTDOPT                   ...         5   

-------------------------   ----------------
Dispersion correction           -0.005923813
-------------------------   ----------------

------------------   -----------------
gCP correction             0.010827376
------------------   -----------------

-------------------------   --------------------
FINAL SINGLE POINT ENERGY      -297.793921656570
-------------------------   --------------------



           ************************************************************
           *        Program running with 8 parallel MPI-processes     *
           *              working on a common directory               *
           ************************************************************
------------------------------------------------------------------------------
                         ORCA SCF GRADIENT CALCULATION
------------------------------------------------------------------------------

Nuc. rep. gradient        (SHARK) ... done (  0.0 sec)
HCore & Overlap gradient  (SHARK) ... done (  0.1 sec)
Split-RIJ-J gradient      (SHARK) ... done (  0.2 sec)
XC gradient                       ... done (  1.0 sec)
Dispersion correction             ... done (  0.0 sec)

-------------------
DISPERSION GRADIENT
-------------------

   1   B   :    0.000069103    0.000015325    0.000015487
   2   B   :    0.000018945    0.000019977    0.000016649
   3   B   :   -0.000022071    0.000009392   -0.000011352
   4   B   :   -0.000069069   -0.000015258    0.000015704
   5   B   :   -0.000019862   -0.000012162    0.000006863
   6   B   :    0.000021852   -0.000016707   -0.000016581
   7   B   :    0.000068958   -0.000016229   -0.000016111
   8   B   :    0.000019891   -0.000016362   -0.000016489
   9   B   :   -0.000024918   -0.000014890    0.000012406
  10   B   :   -0.000069056    0.000016254   -0.000015972
  11   B   :   -0.000019076    0.000010666   -0.000010277
  12   B   :    0.000025304    0.000019994    0.000019672

Difference to translation invariance:
           :    0.0000000000   -0.0000000000    0.0000000000

Difference to rotation invariance:
           :    0.0000000000   -0.0000000000    0.0000000000

Norm of the Dispersion gradient    ...    0.0001684296
RMS gradient                       ...    0.0000280716
[...]
      py      :     0.532889
      dz2     :     0.007877  d :     0.032926
      dxz     :     0.006755
      dyz     :     0.003204
      dx2y2   :     0.008325
      dxy     :     0.006766



                     *******************************
                     * LOEWDIN POPULATION ANALYSIS *
                     *******************************

----------------------
LOEWDIN ATOMIC CHARGES
----------------------
   0 B :   -0.059603
   1 B :    0.049789
   2 B :    0.010014
   3 B :   -0.059773
   4 B :    0.049845
   5 B :    0.009907
   6 B :   -0.059758
   7 B :    0.009752
   8 B :    0.049875
   9 B :   -0.059698
  10 B :    0.009769
  11 B :    0.049880

-------------------------------
LOEWDIN REDUCED ORBITAL CHARGES
-------------------------------
  0 B s       :     2.678259  s :     2.678259
      pz      :     0.826762  p :     2.303142
      px      :     0.649417
      py      :     0.826963
      dz2     :     0.016789  d :     0.078202
      dxz     :     0.017430
      dyz     :     0.008543
      dx2y2   :     0.018008
      dxy     :     0.017431

  1 B s       :     2.748634  s :     2.748634
      pz      :     0.598860  p :     2.136851
      px      :     0.939113
      py      :     0.598878
      dz2     :     0.014775  d :     0.064726
      dxz     :     0.013879
      dyz     :     0.006311
      dx2y2   :     0.015898
      dxy     :     0.013863

  2 B s       :     2.675680  s :     2.675680
      pz      :     0.726932  p :     2.235783
      px      :     0.782510
      py      :     0.726341
      dz2     :     0.018975  d :     0.078523
      dxz     :     0.013410
      dyz     :     0.013790
      dx2y2   :     0.018978
      dxy     :     0.013371

  3 B s       :     2.678212  s :     2.678212
      pz      :     0.826748  p :     2.303354
      px      :     0.649547
      py      :     0.827058
      dz2     :     0.016800  d :     0.078207
      dxz     :     0.017426
      dyz     :     0.008549
      dx2y2   :     0.018006
      dxy     :     0.017426

  4 B s       :     2.748704  s :     2.748704
      pz      :     0.598750  p :     2.136735
      px      :     0.939027
      py      :     0.598958
      dz2     :     0.014765  d :     0.064717
      dxz     :     0.013889
      dyz     :     0.006307
      dx2y2   :     0.015894
      dxy     :     0.013862

  5 B s       :     2.675621  s :     2.675621
      pz      :     0.727286  p :     2.235918
      px      :     0.782369
      py      :     0.726263
      dz2     :     0.018982  d :     0.078553
      dxz     :     0.013422
      dyz     :     0.013804
      dx2y2   :     0.018975
      dxy     :     0.013370

  6 B s       :     2.678195  s :     2.678195
      pz      :     0.826696  p :     2.303358
      px      :     0.650513
      py      :     0.826150
      dz2     :     0.016800  d :     0.078204
      dxz     :     0.017384
      dyz     :     0.008592
      dx2y2   :     0.018057
      dxy     :     0.017372

  7 B s       :     2.675518  s :     2.675518
      pz      :     0.727257  p :     2.236149
      px      :     0.780673
      py      :     0.728219
      dz2     :     0.018990  d :     0.078580
      dxz     :     0.013383
      dyz     :     0.013847
      dx2y2   :     0.018933
      dxy     :     0.013427

  8 B s       :     2.748768  s :     2.748768
      pz      :     0.598608  p :     2.136646
      px      :     0.939279
      py      :     0.598759
      dz2     :     0.014763  d :     0.064710
      dxz     :     0.013910
      dyz     :     0.006283
      dx2y2   :     0.015828
      dxy     :     0.013926

  9 B s       :     2.678296  s :     2.678296
      pz      :     0.826710  p :     2.303216
      px      :     0.650476
      py      :     0.826030
      dz2     :     0.016784  d :     0.078185
      dxz     :     0.017388
      dyz     :     0.008587
      dx2y2   :     0.018057
      dxy     :     0.017370

 10 B s       :     2.675550  s :     2.675550
      pz      :     0.727470  p :     2.236116
      px      :     0.780442
      py      :     0.728204
      dz2     :     0.018982  d :     0.078565
      dxz     :     0.013390
      dyz     :     0.013842
      dx2y2   :     0.018927
      dxy     :     0.013424

 11 B s       :     2.748715  s :     2.748715
      pz      :     0.598669  p :     2.136676
      px      :     0.939299
      py      :     0.598708
      dz2     :     0.014760  d :     0.064729
      dxz     :     0.013921
      dyz     :     0.006283
      dx2y2   :     0.015830
      dxy     :     0.013935



                      *****************************
                      * MAYER POPULATION ANALYSIS *
                      *****************************

  NA   - Mulliken gross atomic population
  ZA   - Total nuclear charge
  QA   - Mulliken gross atomic charge
  VA   - Mayer's total valence
  BVA  - Mayer's bonded valence
  FA   - Mayer's free valence

  ATOM       NA         ZA         QA         VA         BVA        FA
  0 B      4.8218     5.0000     0.1782     3.8747     3.8747    -0.0000
  1 B      5.6376     5.0000    -0.6376     4.1762     4.1762     0.0000
  2 B      4.5406     5.0000     0.4594     2.4852     2.4852    -0.0000
  3 B      4.8214     5.0000     0.1786     3.8742     3.8742     0.0000
  4 B      5.6377     5.0000    -0.6377     4.1753     4.1753     0.0000
  5 B      4.5406     5.0000     0.4594     2.4851     2.4851     0.0000
  6 B      4.8225     5.0000     0.1775     3.8776     3.8776    -0.0000
  7 B      4.5402     5.0000     0.4598     2.4829     2.4829     0.0000
  8 B      5.6376     5.0000    -0.6376     4.1748     4.1748    -0.0000
  9 B      4.8225     5.0000     0.1775     3.8770     3.8770    -0.0000
 10 B      4.5401     5.0000     0.4599     2.4830     2.4830    -0.0000
 11 B      5.6375     5.0000    -0.6375     4.1750     4.1750     0.0000

  Mayer bond orders larger than 0.100000
B(  0-B ,  1-B ) :   1.7771 B(  0-B ,  2-B ) :  -0.5373 B(  0-B ,  3-B ) :   0.5180 
B(  0-B ,  4-B ) :   0.1577 B(  0-B ,  5-B ) :   0.5479 B(  0-B ,  6-B ) :   0.2999 
B(  0-B ,  7-B ) :   0.5479 B(  0-B ,  8-B ) :   0.1571 B(  0-B ,  9-B ) :   0.5173 
B(  0-B , 10-B ) :  -0.5585 B(  0-B , 11-B ) :   0.4475 B(  1-B ,  2-B ) :   0.5178 
B(  1-B ,  3-B ) :   0.1573 B(  1-B ,  4-B ) :   0.5493 B(  1-B ,  5-B ) :  -0.1696 
B(  1-B ,  6-B ) :   0.4488 B(  1-B ,  7-B ) :  -0.1699 B(  1-B ,  8-B ) :   0.5493 
B(  1-B ,  9-B ) :   0.1578 B(  1-B , 10-B ) :  -0.1119 B(  1-B , 11-B ) :   0.4703 
B(  2-B ,  3-B ) :   0.5483 B(  2-B ,  4-B ) :  -0.1691 B(  2-B ,  5-B ) :   0.8258 
B(  2-B ,  6-B ) :  -0.5588 B(  2-B ,  7-B ) :   0.8261 B(  2-B ,  8-B ) :  -0.1694 
B(  2-B ,  9-B ) :   0.5485 B(  2-B , 10-B ) :   0.7651 B(  2-B , 11-B ) :  -0.1117 
B(  3-B ,  4-B ) :   1.7757 B(  3-B ,  5-B ) :  -0.5376 B(  3-B ,  6-B ) :   0.5183 
B(  3-B ,  7-B ) :  -0.5590 B(  3-B ,  8-B ) :   0.4476 B(  3-B ,  9-B ) :   0.3003 
B(  3-B , 10-B ) :   0.5482 B(  3-B , 11-B ) :   0.1572 B(  4-B ,  5-B ) :   0.5175 
B(  4-B ,  6-B ) :   0.1580 B(  4-B ,  7-B ) :  -0.1119 B(  4-B ,  8-B ) :   0.4705 
B(  4-B ,  9-B ) :   0.4480 B(  4-B , 10-B ) :  -0.1696 B(  4-B , 11-B ) :   0.5493 
B(  5-B ,  6-B ) :   0.5487 B(  5-B ,  7-B ) :   0.7655 B(  5-B ,  8-B ) :  -0.1117 
B(  5-B ,  9-B ) :  -0.5581 B(  5-B , 10-B ) :   0.8261 B(  5-B , 11-B ) :  -0.1693 
B(  6-B ,  7-B ) :   0.5478 B(  6-B ,  8-B ) :   0.1577 B(  6-B ,  9-B ) :   0.5180 
B(  6-B , 10-B ) :  -0.5373 B(  6-B , 11-B ) :   1.7768 B(  7-B ,  8-B ) :   0.5168 
B(  7-B ,  9-B ) :  -0.5370 B(  7-B , 10-B ) :   0.8261 B(  7-B , 11-B ) :  -0.1695 
B(  8-B ,  9-B ) :   1.7769 B(  8-B , 10-B ) :  -0.1696 B(  8-B , 11-B ) :   0.5497 
B(  9-B , 10-B ) :   0.5476 B(  9-B , 11-B ) :   0.1577 B( 10-B , 11-B ) :   0.5169 


-------
TIMINGS
-------

Total SCF time: 0 days 0 hours 0 min 2 sec 

Total time                  ....       2.649 sec
Sum of individual times     ....       2.282 sec  ( 86.1%)

SCF preparation             ....       0.112 sec  (  4.2%)
Fock matrix formation       ....       1.806 sec  ( 68.2%)
  Startup                   ....       0.013 sec  (  0.7% of F)
  Split-RI-J                ....       0.268 sec  ( 14.8% of F)
  XC integration            ....       1.682 sec  ( 93.1% of F)
    Basis function eval.    ....       0.203 sec  ( 12.1% of XC)
    Density eval.           ....       0.545 sec  ( 32.4% of XC)
    XC-Functional eval.     ....       0.028 sec  (  1.7% of XC)
    XC-Potential eval.      ....       0.640 sec  ( 38.0% of XC)
Diagonalization             ....       0.000 sec  (  0.0%)
Density matrix formation    ....       0.052 sec  (  2.0%)
Total Energy calculation    ....       0.037 sec  (  1.4%)
Population analysis         ....       0.062 sec  (  2.3%)
Orbital Transformation      ....       0.020 sec  (  0.8%)
Orbital Orthonormalization  ....       0.000 sec  (  0.0%)
DIIS solution               ....       0.033 sec  (  1.2%)
SOSCF solution              ....       0.160 sec  (  6.0%)
Finished LeanSCF after   2.7 sec

Maximum memory used throughout the entire LEANSCF-calculation: 13.6 MB


-------------------------------------------------------------------------------
                          DFT DISPERSION CORRECTION                            
                                                                               
                                DFTD4 V3.4.0                                   
-------------------------------------------------------------------------------
The R2SCAN3C composite method is recognized
Using three-body term ABC
Active option DFTDOPT                   ...         5   

-------------------------   ----------------
Dispersion correction           -0.005923073
-------------------------   ----------------

------------------   -----------------
gCP correction             0.010841455
------------------   -----------------

-------------------------   --------------------
FINAL SINGLE POINT ENERGY      -297.794408679592
-------------------------   --------------------

                                *** OPTIMIZATION RUN DONE ***



           ************************************************************
           *        Program running with 8 parallel MPI-processes     *
           *              working on a common directory               *
           ************************************************************

------------------------------------------------------------------------------
                              ORCA PROPERTY CALCULATIONS
------------------------------------------------------------------------------

GBWName                                 ... b12_hexagonal_prism_m1_refine.gbw
Number of atoms                         ...     12
Number of basis functions               ...    228
Max core memory                         ...   1500 MB

Electric properties:
Dipole moment                           ... YES
Quadrupole moment                       ...  NO
Static polarizability (Dipole/Dipole)   ...  NO
Static polarizability (Dipole/Quad.)    ...  NO
Static polarizability (Quad./Quad.)     ...  NO
Static polarizability (Velocity)        ...  NO
Static hyperpolarizability              ...  NO

Atomic electric properties:
Dipole moment                           ...  NO
Quadrupole moment                       ...  NO
Static polarizability                   ...  NO

Choice of electric origin               ... Center of mass
Position of electric origin             ...     0.000000     0.000000     0.000000

General magnetic properties:
Magnetizability                         ...  NO

EPR properties:
g-Tensor (aka g-matrix)                 ...  NO
Zero-Field splitting spin-orbit         ...  NO
Zero-field splitting spin-spin          ...  NO
Hyperfine couplings                     ...  NO (   0 nuclei)
Quadrupole couplings                    ...  NO (   0 nuclei)
Contact density                         ...  NO (   0 nuclei)

NMR properties:
Chemical shifts                         ...  NO (   0 nuclei)
Spin-rotation constants                 ...  NO (   0 nuclei)
Spin-spin couplings                     ...  NO (   0 nuclei,    0 pairs)

Choice of magnetic origin               ... GIAO
Position of magnetic origin             ...     0.000000     0.000000     0.000000

Properties with geometric perturbations:
SCF Hessian                             ...  NO
IR spectrum                             ...  NO
VCD spectrum                            ...  NO
X-ray spectroscopy properties:
SCF XES/XAS/RIXS spectra                ...  NO

SCF SOC stabilization energy            ...  NO
Diagonal Born-Oppenheimer correction    ...  NO

-------------
DIPOLE MOMENT
-------------

Method             : SCF
Type of density    : Electron Density
Multiplicity       :   1
Irrep              :   0
Energy             :  -297.7993270612578840 Eh
Basis              : AO
                                X                 Y                 Z
Electronic contribution:      0.000177049       0.000183747      -0.000022236
Nuclear contribution   :      0.000000000       0.000000000       0.000000000
                        -----------------------------------------
Total Dipole Moment    :      0.000177049       0.000183747      -0.000022236
                        -----------------------------------------
Magnitude (a.u.)       :      0.000256132
Magnitude (Debye)      :      0.000651036



--------------------
Rotational spectrum 
--------------------
 
Rotational constants in cm-1:             0.090893             0.054457             0.054453 
Rotational constants in MHz :          2724.899914          1632.591036          1632.460962 

Dipole components along the rotational axes: 
x,y,z [a.u.] :    -0.000176     0.000015     0.000185 
x,y,z [Debye]:    -0.000449     0.000039     0.000470 

 

Dipole moment calculation done in   0.0 sec 

Maximum memory used throughout the entire PROP-calculation: 9.6 MB
Converting b12_hexagonal_prism_m1_refine.gbw to JSON (see b12_hexagonal_prism_m1_refine.2jsonout) ... done

--------------------------------
SUGGESTED CITATIONS FOR THIS RUN
--------------------------------

Below you find a list of papers that are relevant to this ORCA run
We neither can nor want to force you to cite these papers, but we appreciate if you do
You receive ORCA, which is the product of decades of hard work by many enthusiastic individuals, for free
The only thing we kindly ask in return is that you cite our papers,
We deeply appreciate it, if you show your appreciation for ORCA by not just citing the generic ORCA reference.

Please note that relegating all ORCA citations to the supporting information does *not* help us.
SI sections are not indexed - citations you put there will not count into any citation statistics
But we need these citations in order to attract the funding resources that allow us to do what we are doing

Therefore, if you are a happy ORCA user, please consider citing a few of the papers listed below in the main body of your paper

In addition to the list printed below, the program has created the file b12_hexagonal_prism_m1_refine.bibtex that contains the list in bibtex format
You can import this file easily into all common literature databanks and citation aid programs

It goes without saying that in many instances, there are alternative algorithms to achieve similar
results as the ones you have gotten from ORCA. It is, of course, also the case that in some instances
ORCA just re-implements algorithms worked out by others. We are fully aware of that and we are also
fully appreciative of our colleagues work. Hence this citation list should not be read as indicating
that the listed papers, which are focused on our own work, are the only ones worth citing. It simply
meant to make it easier for users to cite ORCA specific papers. It is not a substitute for doing your
own literature research and citing the relevant literature in a scientifically appropriate manner.

List of essential papers. We consider these as the minimum necessary citations

  1. Grimme, S.; Hansen, A.; Ehlert, S.; Mewes, J.
     r2SCAN-3c: A 'Swiss army knife' composite electronic-structure method
     J. Chem. Phys. 2021 154 , 064103
     doi.org/10.1063/5.0040021
  2. Neese, F.
     Software update: the ORCA program system, version 6.0
     WIRES Comput. Molec. Sci. 2025 15(1), e70019
     doi.org/10.1002/wcms.70019

List of papers to cite with high priority. The work reported in these papers was absolutely
necessary for this run to complete.
Our perspective: the developers of density functionals and basis sets usually get cited in chemistry papers
Good! But without the algorithms to do something with them, the functionals or basis sets would not do anything.
Hence, in our opinion, the algorithm design and method developments papers are equally worthy of getting cited

  1. Neese, F.
     An improvement of the resolution of the identity approximation for the formation of the Coulomb matrix
     J. Comp. Chem. 2003 24(14), 1740-1747
     doi.org/10.1002/jcc.10318
  2. Caldeweyher, E.; Bannwarth, C.; Grimme, S.
     Extension of the D3 dispersion coefficient model
     J. Chem. Phys. 2017 147 , 034112
     doi.org/10.1063/1.4993215
  3. Lehtola, S.; Steigemann, C.; Oliveira, M.; Marques, M.
     Recent developments in Libxc - A comprehensive library of functionals for density functional theory
     Software X 2018 7 , 
     doi.org/10.1016/j.softx.2017.11.002
  4. Caldeweyher, E.; Ehlert, S.; Hansen, A.; Neugebauer, H.; Spicher, S.; Bannwarth, C.; Grimme, S.
     A generally applicable atomic-charge dependent London dispersion correction
     J. Chem. Phys. 2019 150 , 154122
     doi.org/10.1063/1.5090222
  5. Neese, F.
     The SHARK Integral Generation and Digestion System
     J. Comp. Chem. 2022 44(3), 381
     doi.org/10.1002/jcc.26942

List of suggested additional citations. These are papers that are important in the 'surrounding' of 
of this run, or papers that preceded the highly important papers. If you like your results we are grateful for a citation.

  1. Neese, F.
     The ORCA program system
     WIRES Comput. Molec. Sci. 2012 2(1), 73-78
     doi.org/10.1002/wcms.81
  2. Neese, F.
     Software update: the ORCA program system, version 4.0
     WIRES Comput. Molec. Sci. 2018 8(1), 1-6
     doi.org/10.1002/wcms.1327
  3. Neese, F.; Wennmohs, F.; Becker, U.; Riplinger, C.
     The ORCA quantum chemistry program package
     J. Chem. Phys. 2020 152(22), 224108
     doi.org/10.1063/5.0004608
  4. Neese, F.
     Software update: The ORCA program system—Version 5.0
     WIRES Comput. Molec. Sci. 2022 12(1), e1606
     doi.org/10.1002/wcms.1606

List of optional additional citations

  1. Neese, F.
     Approximate second-order SCF convergence for spin unrestricted wavefunctions
     Chem. Phys. Lett. 2000 325(1-3), 93-98
     doi.org/10.1016/s0009-2614(00)00662-x

Timings for individual modules:

Sum of individual times          ...       76.852 sec (=   1.281 min)
Startup calculation              ...        7.298 sec (=   0.122 min)   9.5 %
SCF iterations                   ...       53.409 sec (=   0.890 min)  69.5 %
Property calculations            ...        0.356 sec (=   0.006 min)   0.5 %
SCF Gradient evaluation          ...       15.548 sec (=   0.259 min)  20.2 %
Geometry relaxation              ...        0.241 sec (=   0.004 min)   0.3 %
                             ****ORCA TERMINATED NORMALLY****
TOTAL RUN TIME: 0 days 0 hours 1 minutes 20 seconds 628 msec
