
                                 *****************
                                 * O   R   C   A *
                                 *****************

                                            #,                                       
                                            ###                                      
                                            ####                                     
                                            #####                                    
                                            ######                                   
                                           ########,                                 
                                     ,,################,,,,,                         
                               ,,#################################,,                 
                          ,,##########################################,,             
                       ,#########################################, ''#####,          
                    ,#############################################,,   '####,        
                  ,##################################################,,,,####,       
                ,###########''''           ''''###############################       
              ,#####''   ,,,,##########,,,,          '''####'''          '####       
            ,##' ,,,,###########################,,,                        '##       
           ' ,,###''''                  '''############,,,                           
         ,,##''                                '''############,,,,        ,,,,,,###''
      ,#''                                            '''#######################'''  
     '                                                          ''''####''''         
             ,#######,   #######,   ,#######,      ##                                
            ,#'     '#,  ##    ##  ,#'     '#,    #''#        ,####,    ,#,          
            ##       ##  ##   ,#'  ##            #'  '#       #'       ,# #          
            ##       ##  #######   ##           ,######,      #####,      #          
            '#,     ,#'  ##    ##  '#,     ,#' ,#      #,     #,   #      #          
             '#######'   ##     ##  '#######'  #'      '#     '####' #    #          



                #########################################################
                #                        -***-                          #
                #          Department of theory and spectroscopy        #
                #                                                       #
                #                      Frank Neese                      #
                #                                                       #
                #     Directorship, Architecture, Infrastructure        #
                #                    SHARK, DRIVERS                     #
                #        Core code/Algorithms in most modules           #
                #                                                       #
                #        Max Planck Institute fuer Kohlenforschung      #
                #                Kaiser Wilhelm Platz 1                 #
                #                 D-45470 Muelheim/Ruhr                 #
                #                      Germany                          #
                #                                                       #
                #                  All rights reserved                  #
                #                        -***-                          #
                #########################################################


                         Program Version 6.1.1  -  RELEASE   -


 With contributions from (in alphabetic order):
[Max-Planck-Institut fuer Kohlenforschung]                               
  Daniel Aravena         : Magnetic Suceptibility                        
  Michael Atanasov       : Ab Initio Ligand Field Theory (pilot matlab implementation)
  Alexander A. Auer      : GIAO ZORA, VPT2 properties, NMR spectrum      
  Ute Becker             : All parallelization in ORCA, NUMFREQ, NUMCALC 
  Giovanni Bistoni       : ED, misc. LED, open-shell LED, HFLD           
  Dmytro Bykov           : pre 5.0 version of the SCF Hessian            
  Marcos Casanova-Páez   : Triplet and SCS-CIS(D). UHF-(DLPNO)-IP/EA/STEOM-CCSD. UHF-CVS-IP/STEOM-CCSD   
  Vijay G. Chilkuri      : MRCI spin determinant printing, contributions to CSF-ICE 
  Pauline Colinet        : FMM embedding                                 
  Dipayan Datta          : RHF DLPNO-CCSD density                        
  Achintya Kumar Dutta   : EOM-CC, STEOM-CC                              
  Nicolas Foglia         : Exact transition moments, OPA infrastructure, MCD improvements    
  Dmitry Ganyushin       : Spin-Orbit,Spin-Spin,Magnetic field MRCI      
  Miquel Garcia-Rates    : C-PCM and meta-GGA Hessian, CCSD/C-PCM, Gaussian charge scheme 
  Tiago L. C. Gouveia    : GS-ROHF, GS-ROCIS                             
  Yang Guo               : DLPNO-NEVPT2, F12-NEVPT2, CIM, IAO-localization        
  Andreas Hansen         : Spin unrestricted coupled pair/coupled cluster methods 
  Ingolf Harden          : AUTO-CI MPn and infrastructure                
  Benjamin Helmich-Paris : MC-RPA, TRAH-(SCF,CASSCF), AVAS, COSX integrals, SCF dyn. polar., MC-PDFT, srDFT 
  Lee Huntington         : MR-EOM, pCC                                   
  Robert Izsak           : Overlap fitted RIJCOSX, COSX-SCS-MP3, EOM     
  Riya Kayal             : Wick's Theorem for AUTO-CI, AUTO-CI UHF-CCSDT 
  Emily Kempfer          : AUTO-CI RHF CISDT and CCSDT, approximate NEVPT4
  Christian Kollmar      : KDIIS, OOCD, Brueckner-CCSD(T), CCSD density, CASPT2, CASPT2-K, improved NEVPT2 
  Axel Koslowski         : Symmetry handling                             
  Simone Kossmann        : meta-GGA functionals, TD-DFT gradient, OOMP2, (MP2 Hessian; deprecated post 5.0) 
  Lucas Lang             : DCDCAS, Hyperfine gauge corrections, ICE-SOC+SSC
  Marvin Lechner         : AUTO-CI (C++ implementation), FIC-MRCC        
  Spencer Leger          : CASSCF response                               
  Dagmar Lenk            : GEPOL surface, SMD, ORCA-2-JSON               
  Dimitrios Liakos       : Extrapolation schemes; Compound Job, Property file
  Dimitrios Manganas     : Further ROCIS development; embedding schemes. LFT, Crystal Embedding 
  Dimitrios Pantazis     : SARC Basis sets                               
  Anastasios Papadopoulos: AUTO-CI, single reference methods and gradients 
  Taras Petrenko         : pre 6.0 DFT Hessian and TD-DFT gradient,  ECA, NRVS 
  Petra Pikulova         : Analytic Raman intensities                    
  Peter Pinski           : DLPNO-MP2, DLPNO-MP2 Gradient                 
  Shashank Vittal Rao    : ES-AILFT, MagRelax                            
  Christoph Reimann      : Effective Core Potentials                     
  Marius Retegan         : Local ZFS, SOC                                
  Christoph Riplinger    : Optimizer, TS searches, QM/MM, DLPNO-CCSD(T), (RO)-DLPNO pert. Triples 
  Michael Roemelt        : Original ROCIS implementation, recursive CI coupling coefficients
  Masaaki Saitow         : Open-shell DLPNO-CCSD energy and density      
  Barbara Sandhoefer     : DKH picture change effects                    
  Yorick L. A. Schmerwitz: GMF and freeze-and-release deltaSCF, NEB S-IDPP initial path                    
  Kantharuban Sivalingam : CASSCF convergence/infrastructure, NEVPT2, NEVPT3, NEVPT4(SD), FIC-MRCI and CEPA variants
  Bernardo de Souza      : ESD, SOC TD-DFT                               
  Georgi L. Stoychev     : AutoAux, RI-MP2 NMR, DLPNO-MP2 response, X2C  
  Van Anh Tran           : RI-MP2 g-tensors                              
  Willem Van den Heuvel  : Paramagnetic NMR                              
  Zikuan Wang            : NOTCH, Electric field optimization            
  Frank Wennmohs         : Technical directorship and infrastructure     
  Hang Xu                : AUTO-CI-Response properties                   
                                                                         
[FACCTs GmbH]                                                            
  Markus Bursch, Nicolas Foglia, Miquel Garcia-Rates, Ingolf Harden, Hagen Neugebauer, Anastasios Papadopoulos, 
  Christoph Riplinger, Bernardo de Souza, Georgi L. Stoychev                                                    
                                                                 
  APM, various basis sets, CI-OPT, improved COSX, DLPNO-Multilevel,           
  DOCKER, DRACO, updates on ESD, Fragmentator, GOAT, IRC, LR-CPCM, L-BFGS, MBIS, meta-GGA TD-DFT gradient, ML-optimized integration grids, 
  MM, NACMEs, nearIR, NEB, NEB-TS, NL-DFT gradient (VV10), 2- and 3-layer-ONIOM, interface openCOSMO-RS, QMMM,   
  Crystal-QMMM, RESP, rigid body optimization, SF, symmetry and pop. for TD-DFT, various functionals, SOLVATOR                                   
                                                                         
[Other institutions]                                                     
  V. Asgeirsson          : NEB                                           
  Christoph Bannwarth    : sTDA-DFT, sTD-DFT, PBEh-3c, B97-3c, D3        
  Giovanni Bistoni       : ETS/NOCV, ADLD/ADEX, COVALED                  
  Martin Brehm           : Molecular dynamics                            
  Ronald Cardenas        : ETS/NOCV                                      
  Martina Colucci        : COVALED                                       
  Sebastian Ehlert       : rSCAN, r2SCAN, r2SCAN-3c, D4, dhf basis sets  
  Marvin Friede          : D4 for Fr, Ra, Ac-Lr                          
  Lars Goerigk           : TD-DFT with DH, B97 family of functionals     
  Stefan Grimme          : VdW corrections, initial TS optimization, DFT functionals, gCP, sTDA/sTD-DF 
  Waldemar Hujo          : DFT-NL                                        
  H. Jonsson             : NEB                                           
  Holger Kruse           : gCP                                           
  Marcel Mueller         : wB97X-3c, vDZP basis set                      
  Hagen Neugebauer       : wr2SCAN, Native XTB                           
  Gianluca Regni         : ADLD/ADEX                                     
  Tobias Risthaus        : pre 6.0 range-separated hybrid DFT and stability analysis
  Lukas Wittmann         : regularized MP2, r2SCAN double-hybrids, wr2SCAN        
                                                                         
We gratefully acknowledge several colleagues who have allowed us to      
interface, adapt or use parts of their codes:                            
  Ed Valeev, F. Pavosevic, A. Kumar             : LibInt (2-el integral package), F12 methods 
  Garnet Chan, S. Sharma, J. Yang, R. Olivares  : DMRG                   
  Ulf Ekstrom                                   : XCFun DFT Library      
  Mihaly Kallay                                 : mrcc  (arbitrary order and MRCC methods)
  Frank Weinhold                                : gennbo (NPA and NBO analysis)           
  Simon Mueller                                 : openCOSMO-RS                            
  Christopher J. Cramer and Donald G. Truhlar   : smd solvation model                     
  S Lehtola, MJT Oliveira, MAL Marques          : LibXC Library                           
  Liviu Ungur et al                             : ANISO software                          


 Your calculation uses the libint2 library for the computation of 2-el integrals
 For citations please refer to: http://libint.valeyev.net

 Your ORCA version has been built with support for libXC version: 7.0.0
 For citations please refer to: https://libxc.gitlab.io

 This ORCA versions uses:
   CBLAS   interface :  Fast vector & matrix operations
   LAPACKE interface :  Fast linear algebra routines
   Shared memory     :  Shared parallel matrices


  ***********************************
  * Starting time: Mon Mar 30 17:50:22 2026
  * Host name:     DESKTOP-E59RH2R
  * Process ID:    81400
  * Working dir.:  C:\Users\gnome\Desktop\Vitya_Diplom\Vitya_DiplomB12\05_spin_comparison\b12_hexagonal_prism\mult_3\opt
  ***********************************

NOTE: MaxCore=1500 MB was set to SCF,MP2,MDCI,CIPSI,MRCI,RASCI and CIS
      => If you want to overwrite this, your respective input block should be placed after the MaxCore statement
Your calculation utilizes the geometrical counterpoise correction gCP
Please cite in your paper:
H.Kruse, S. Grimme J.Chem.Phys., 136, (2012), 154101 
   

Your calculation utilizes the atom-pairwise dispersion correction
based on EEQ partial charges (D4)


================================================================================

----- Orbital basis set information -----
Your calculation utilizes the basis: def2-mTZVPP
   Stefan Grimme, Andreas Hansen, Sebastian Ehlert, and Jan-Michael Mewes 
   J. Chem. Phys. 154, 064103 (2021). DOI: 10.1063/5.0040021

----- AuxJ basis set information -----
Your calculation utilizes the basis: def2-mTZVPP/J
   Stefan Grimme, Andreas Hansen, Sebastian Ehlert, and Jan-Michael Mewes 
   J. Chem. Phys. 154, 000000 (2021). DOI: 10.1063/5.0040021

================================================================================
                                        WARNINGS
                       Please study these warnings very carefully!
================================================================================



WARNING: SCAN, rSCAN, or r2SCAN functional requested.
  ===> : libXC variant has now been activated.



WARNING: your system is open-shell and RHF/RKS was chosen
  ===> : WILL SWITCH to UHF/UKS


WARNING: Geometry Optimization
  ===> : Switching off AutoStart
         For restart on a previous wavefunction, please use MOREAD

================================================================================
                                       INPUT FILE
================================================================================
NAME = b12_hexagonal_prism_m3_spinopt.inp
|  1> !r2scan-3c
|  2> !tightopt
|  3> !tightscf
|  4> 
|  5> %output
|  6>     jsonpropfile true
|  7>     jsongbwfile true
|  8> end
|  9> 
| 10> %maxcore 1500
| 11> %pal
| 12>   nprocs 8
| 13> end
| 14> 
| 15> * xyz 0 3
| 16> B             1.9301996024580399             0.5863756100549200             0.5914869941246500
| 17> B             0.5793009173024000             1.0891256384135299             1.0906522757569499
| 18> B            -0.9802515399658500             0.7802218754564600             0.7776110567997300
| 19> B            -1.9296762559171501            -0.5862157376614801             0.5925268712397200
| 20> B            -0.5785159118419100            -1.0889884976686901             1.0913572253643000
| 21> B             0.9807590209072700            -0.7801643868435000             0.7767253987831100
| 22> B             1.9258864733159200            -0.5983167664020400            -0.5926512068307001
| 23> B             0.9848940629915101             0.7739519743266600            -0.7770073049671500
| 24> B            -0.5727248782637900             1.0921657197385599            -1.0913361649405000
| 25> B            -1.9264768994946000             0.5984055665238700            -0.5914298300749600
| 26> B            -0.9853007682228200            -0.7741334981562100            -0.7763883161752800
| 27> B             0.5719061767309900            -1.0924274977820601            -1.0915469990798801
| 28> *
| 29> 
| 30>                          ****END OF INPUT****
================================================================================

                       *****************************
                       * Geometry Optimization Run *
                       *****************************

Geometry optimization settings:
Update method            Update   .... BFGS
Choice of coordinates    CoordSys .... (2022) Redundant Internals
Initial Hessian          InHess   .... Almloef's Model
Max. no of cycles        MaxIter  .... 50

Convergence Tolerances:
Energy Change            TolE     ....  1.0000e-06 Eh
Max. Gradient            TolMAXG  ....  1.0000e-04 Eh/bohr
RMS Gradient             TolRMSG  ....  3.0000e-05 Eh/bohr
Max. Displacement        TolMAXD  ....  1.0000e-03 bohr
RMS Displacement         TolRMSD  ....  6.0000e-04 bohr
Strict Convergence                .... False

------------------------------------------------------------------------------
                        ORCA OPTIMIZATION COORDINATE SETUP
------------------------------------------------------------------------------

The optimization will be done in redundant internal coordinates (2022)
Making redundant internal coordinates   ...  (2022 redundants) done
Evaluating the initial hessian          ...  (Almloef) done
Evaluating the coordinates              ...  done
Calculating the B-matrix                .... done
Calculating the G-matrix                .... done
The number of degrees of freedom        ....  290

    -----------------------------------------------------------------
                    Redundant Internal Coordinates


    -----------------------------------------------------------------
         Definition                    Initial Value    Approx d2E/dq
    -----------------------------------------------------------------
      1. B(B   1,B   0)                  1.5254         0.509740   
      2. B(B   2,B   1)                  1.6204         0.359602   
      3. B(B   3,B   2)                  1.6742         0.295130   
      4. B(B   4,B   3)                  1.5255         0.509497   
      5. B(B   4,B   2)                  1.9375         0.112183   
      6. B(B   5,B   1)                  1.9375         0.112163   
      7. B(B   5,B   0)                  1.6743         0.295011   
      8. B(B   5,B   4)                  1.6204         0.359568   
      9. B(B   6,B   5)                  1.6738         0.295547   
     10. B(B   6,B   0)                  1.6750         0.294198   
     11. B(B   7,B   6)                  1.6741         0.295207   
     12. B(B   7,B   1)                  1.9370         0.112373   
     13. B(B   7,B   0)                  1.6738         0.295535   
     14. B(B   8,B   7)                  1.6206         0.359350   
     15. B(B   8,B   2)                  1.9381         0.111909   
     16. B(B   9,B   8)                  1.5252         0.510047   
     17. B(B   9,B   3)                  1.6748         0.294394   
     18. B(B   9,B   2)                  1.6741         0.295176   
     19. B(B  10,B   9)                  1.6745         0.294783   
     20. B(B  10,B   8)                  1.9371         0.112320   
     21. B(B  10,B   4)                  1.9373         0.112257   
     22. B(B  10,B   3)                  1.6736         0.295690   
     23. B(B  11,B  10)                  1.6203         0.359639   
     24. B(B  11,B   7)                  1.9372         0.112279   
     25. B(B  11,B   6)                  1.5252         0.510075   
     26. B(B  11,B   5)                  1.9378         0.112041   
     27. A(B   1,B   0,B   5)           74.3713         0.380154   
     28. A(B   6,B   0,B   7)           59.9875         0.346199   
     29. A(B   1,B   0,B   6)          117.5266         0.379972   
     30. A(B   5,B   0,B   6)           59.9656         0.346095   
     31. A(B   1,B   0,B   7)           74.3626         0.380271   
     32. A(B   5,B   0,B   7)           82.0481         0.346359   
     33. A(B   0,B   1,B   5)           56.3238         0.322918   
     34. A(B   0,B   1,B   2)          136.5779         0.393498   
     35. A(B   5,B   1,B   7)           69.1089         0.255123   
     36. A(B   2,B   1,B   5)           89.0946         0.305156   
     37. A(B   0,B   1,B   7)           56.3179         0.323017   
     38. A(B   2,B   1,B   7)           89.0969         0.305248   
     39. A(B   3,B   2,B   8)           98.2796         0.295597   
     40. A(B   3,B   2,B   9)           60.0277         0.346312   
     41. A(B   3,B   2,B   4)           49.3115         0.295711   
     42. A(B   1,B   2,B   4)           87.3100         0.305165   
     43. A(B   4,B   2,B   9)           98.3283         0.295718   
     44. A(B   4,B   2,B   8)          105.5356         0.254975   
     45. A(B   1,B   2,B   3)          136.2838         0.358071   
     46. A(B   1,B   2,B   8)           87.3196         0.305045   
     47. A(B   8,B   2,B   9)           49.2884         0.295604   
     48. A(B   1,B   2,B   9)          136.2763         0.358080   
     49. A(B   9,B   3,B  10)           60.0094         0.346268   
     50. A(B   2,B   3,B  10)           82.0720         0.346413   
     51. A(B   4,B   3,B   9)          117.5528         0.379985   
     52. A(B   2,B   3,B   9)           59.9849         0.346157   
     53. A(B   2,B   3,B   4)           74.3691         0.380149   
     54. A(B   4,B   3,B  10)           74.3762         0.380274   
     55. A(B   3,B   4,B  10)           56.3038         0.322937   
     56. A(B   2,B   4,B  10)           69.1170         0.255091   
     57. A(B   3,B   4,B   5)          136.5508         0.393459   
     58. A(B   2,B   4,B   3)           56.3194         0.322902   
     59. A(B   2,B   4,B   5)           89.0956         0.305160   
     60. A(B   5,B   4,B  10)           89.0765         0.305192   
     61. A(B   4,B   5,B   6)          136.2969         0.358151   
     62. A(B   4,B   5,B  11)           87.3326         0.305098   
     63. A(B   1,B   5,B   4)           87.3077         0.305151   
     64. A(B   0,B   5,B   4)          136.2797         0.358040   
     65. A(B   6,B   5,B  11)           49.2974         0.295718   
     66. A(B   1,B   5,B   6)           98.3222         0.295769   
     67. A(B   0,B   5,B   1)           49.3049         0.295684   
     68. A(B   0,B   5,B   6)           60.0395         0.346362   
     69. A(B   1,B   5,B  11)          105.5430         0.255012   
     70. A(B   0,B   5,B  11)           98.3085         0.295633   
     71. A(B   5,B   6,B   7)           82.0539         0.346400   
     72. A(B   0,B   6,B   7)           59.9696         0.346134   
     73. A(B   5,B   6,B  11)           74.4037         0.380317   
     74. A(B   0,B   6,B   5)           59.9949         0.346201   
     75. A(B   7,B   6,B  11)           74.3684         0.380241   
     76. A(B   0,B   6,B  11)          117.5583         0.380016   
     77. A(B   1,B   7,B   6)           98.3311         0.295802   
     78. A(B   0,B   7,B   6)           60.0428         0.346398   
     79. A(B   0,B   7,B   1)           49.3196         0.295854   
     80. A(B   8,B   7,B  11)           87.2936         0.305173   
     81. A(B   6,B   7,B  11)           49.3059         0.295763   
     82. A(B   1,B   7,B  11)          105.5854         0.255162   
     83. A(B   0,B   7,B  11)           98.3479         0.295815   
     84. A(B   6,B   7,B   8)          136.2676         0.358044   
     85. A(B   1,B   7,B   8)           87.3526         0.305213   
     86. A(B   0,B   7,B   8)          136.3378         0.358112   
     87. A(B   9,B   8,B  10)           56.3434         0.323024   
     88. A(B   7,B   8,B  10)           89.0830         0.305190   
     89. A(B   2,B   8,B  10)           69.1066         0.255021   
     90. A(B   7,B   8,B   9)          136.5481         0.393491   
     91. A(B   2,B   8,B   9)           56.3039         0.322830   
     92. A(B   2,B   8,B   7)           89.0521         0.305011   
     93. A(B   3,B   9,B  10)           59.9599         0.346089   
     94. A(B   2,B   9,B  10)           82.0483         0.346244   
     95. A(B   3,B   9,B   8)          117.5396         0.380056   
     96. A(B   2,B   9,B   8)           74.4077         0.380231   
     97. A(B   2,B   9,B   3)           59.9874         0.346167   
     98. A(B   8,B   9,B  10)           74.3520         0.380143   
     99. A(B   4,B  10,B   8)          105.5814         0.255137   
    100. A(B   3,B  10,B   8)           98.3364         0.295857   
    101. A(B   3,B  10,B   4)           49.3200         0.295830   
    102. A(B   9,B  10,B  11)          136.2750         0.358005   
    103. A(B   8,B  10,B  11)           87.3030         0.305230   
    104. A(B   4,B  10,B  11)           87.3519         0.305202   
    105. A(B   3,B  10,B  11)          136.3373         0.358193   
    106. A(B   8,B  10,B   9)           49.3046         0.295713   
    107. A(B   4,B  10,B   9)           98.3226         0.295687   
    108. A(B   3,B  10,B   9)           60.0307         0.346345   
    109. A(B   7,B  11,B  10)           89.0859         0.305212   
    110. A(B   6,B  11,B  10)          136.5417         0.393550   
    111. A(B   5,B  11,B  10)           89.0598         0.305108   
    112. A(B   6,B  11,B   7)           56.3258         0.323008   
    113. A(B   5,B  11,B   7)           69.0982         0.255051   
    114. A(B   5,B  11,B   6)           56.2988         0.322895   
    115. D(B   2,B   1,B   0,B   5)    -42.9718         0.014071   
    116. D(B   2,B   1,B   0,B   6)     -0.0154         0.014071   
    117. D(B   7,B   1,B   0,B   5)    -85.9360         0.014071   
    118. D(B   5,B   1,B   0,B   7)     85.9360         0.014071   
    119. D(B   2,B   1,B   0,B   7)     42.9643         0.014071   
    120. D(B   5,B   1,B   0,B   6)     42.9564         0.014071   
    121. D(B   3,B   2,B   1,B   5)     11.7835         0.010000   
    122. D(B   8,B   2,B   1,B   0)    -52.8389         0.010000   
    123. D(B   4,B   2,B   1,B   7)     87.4178         0.010000   
    124. D(B   3,B   2,B   1,B   7)     80.9022         0.010000   
    125. D(B   4,B   2,B   1,B   0)     52.8626         0.010000   
    126. D(B   4,B   2,B   1,B   5)     18.2991         0.010000   
    127. D(B   3,B   2,B   1,B   0)     46.3470         0.010000   
    128. D(B   9,B   3,B   2,B   4)   -135.7543         0.010000   
    129. D(B   4,B   3,B   2,B   8)    103.4047         0.010000   
    130. D(B   9,B   3,B   2,B   1)   -127.1573         0.010000   
    131. D(B   4,B   3,B   2,B   9)    135.7543         0.010000   
    132. D(B  10,B   3,B   2,B   1)    -67.3159         0.010000   
    133. D(B   9,B   3,B   2,B   8)    -32.3496         0.010000   
    134. D(B   4,B   3,B   2,B   1)      8.5970         0.010000   
    135. D(B   5,B   4,B   3,B   2)    -43.0214         0.014058   
    136. D(B   5,B   4,B   2,B   9)    114.3611         0.010000   
    137. D(B   2,B   4,B   3,B   9)     42.9573         0.014058   
    138. D(B  10,B   4,B   3,B   2)    -85.9585         0.014058   
    139. D(B   5,B   4,B   2,B   3)    152.0134         0.010000   
    140. D(B   3,B   4,B   2,B   9)    -37.6523         0.010000   
    141. D(B   3,B   4,B   2,B   8)    -87.5985         0.010000   
    142. D(B   5,B   4,B   3,B   9)     -0.0641         0.014058   
    143. D(B   3,B   4,B   2,B   1)   -174.0639         0.010000   
    144. D(B   2,B   4,B   3,B  10)     85.9585         0.014058   
    145. D(B   5,B   4,B   2,B   8)     64.4149         0.010000   
    146. D(B   5,B   4,B   2,B   1)    -22.0504         0.010000   
    147. D(B   5,B   4,B   3,B  10)     42.9372         0.014058   
    148. D(B   6,B   5,B   4,B   2)    -80.9381         0.010000   
    149. D(B   1,B   5,B   4,B  10)     87.4259         0.010000   
    150. D(B   1,B   5,B   4,B   3)     52.8970         0.010000   
    151. D(B   0,B   5,B   4,B   2)     11.8315         0.010000   
    152. D(B   6,B   5,B   1,B   0)    -37.6752         0.010000   
    153. D(B   0,B   5,B   4,B  10)     80.9586         0.010000   
    154. D(B   4,B   5,B   1,B   2)    -22.0499         0.010000   
    155. D(B   1,B   5,B   0,B   7)    -75.9045         0.010000   
    156. D(B   4,B   5,B   1,B   0)   -174.1068         0.010000   
    157. D(B   0,B   5,B   4,B   3)     46.4297         0.010000   
    158. D(B   4,B   5,B   1,B   7)   -111.4288         0.010000   
    159. D(B   1,B   5,B   4,B   2)     18.2988         0.010000   
    160. D(B   6,B   5,B   1,B   2)    114.3816         0.010000   
    161. D(B   0,B   5,B   1,B   2)    152.0569         0.010000   
    162. D(B   4,B   5,B   0,B   1)      8.5339         0.010000   
    163. D(B   6,B   5,B   0,B   7)     59.8266         0.010000   
    164. D(B   0,B   5,B   1,B   7)     62.6780         0.010000   
    165. D(B   4,B   5,B   0,B   7)    -67.3706         0.010000   
    166. D(B   6,B   5,B   0,B   1)    135.7311         0.010000   
    167. D(B   1,B   5,B   0,B   6)   -135.7311         0.010000   
    168. D(B   4,B   5,B   0,B   6)   -127.1972         0.010000   
    169. D(B   0,B   6,B   5,B   4)    127.1736         0.010000   
    170. D(B   0,B   6,B   5,B   1)     32.3351         0.010000   
    171. D(B  11,B   6,B   0,B   5)     49.3409         0.010000   
    172. D(B   5,B   6,B   0,B   7)    -98.5934         0.010000   
    173. D(B  11,B   6,B   0,B   1)      0.0500         0.010000   
    174. D(B   5,B   6,B   0,B   1)    -49.2910         0.010000   
    175. D(B   7,B   6,B   0,B   5)     98.5934         0.010000   
    176. D(B   0,B   6,B   5,B  11)    135.7141         0.010000   
    177. D(B   7,B   6,B   0,B   1)     49.3024         0.010000   
    178. D(B   7,B   6,B   5,B  11)     75.9067         0.010000   
    179. D(B   7,B   6,B   5,B   4)     67.3662         0.010000   
    180. D(B   7,B   6,B   5,B   1)    -27.4724         0.010000   
    181. D(B   7,B   6,B   5,B   0)    -59.8074         0.010000   
    182. D(B   8,B   7,B   6,B   5)    -67.4260         0.010000   
    183. D(B   6,B   7,B   1,B   2)   -114.3739         0.010000   
    184. D(B   1,B   7,B   6,B   0)    -32.3517         0.010000   
    185. D(B   0,B   7,B   6,B   5)     59.8325         0.010000   
    186. D(B   8,B   7,B   1,B   2)     22.0360         0.010000   
    187. D(B   8,B   7,B   1,B   0)    174.0972         0.010000   
    188. D(B   1,B   7,B   6,B  11)    103.4270         0.010000   
    189. D(B   8,B   7,B   6,B   0)   -127.2585         0.010000   
    190. D(B   1,B   7,B   6,B   5)     27.4809         0.010000   
    191. D(B   6,B   7,B   1,B   0)     37.6873         0.010000   
    192. D(B   0,B   7,B   1,B   5)    -62.6856         0.010000   
    193. D(B   0,B   7,B   1,B   2)   -152.0612         0.010000   
    194. D(B   8,B   7,B   0,B   1)     -8.5573         0.010000   
    195. D(B   6,B   7,B   0,B   1)   -135.7191         0.010000   
    196. D(B   1,B   7,B   0,B   6)    135.7191         0.010000   
    197. D(B   1,B   7,B   0,B   5)     75.9143         0.010000   
    198. D(B   6,B   7,B   0,B   5)    -59.8048         0.010000   
    199. D(B   6,B   7,B   1,B   5)    -24.9984         0.010000   
    200. D(B   8,B   7,B   0,B   6)    127.1618         0.010000   
    201. D(B   0,B   7,B   6,B  11)    135.7786         0.010000   
    202. D(B   8,B   7,B   0,B   5)     67.3570         0.010000   
    203. D(B   9,B   8,B   7,B   6)     46.5248         0.010000   
    204. D(B   9,B   8,B   7,B   1)    -52.7686         0.010000   
    205. D(B   9,B   8,B   7,B   0)    -46.2825         0.010000   
    206. D(B   2,B   8,B   7,B  11)     87.4692         0.010000   
    207. D(B   2,B   8,B   7,B   6)     81.0121         0.010000   
    208. D(B   2,B   8,B   7,B   1)    -18.2812         0.010000   
    209. D(B   2,B   8,B   7,B   0)    -11.7951         0.010000   
    210. D(B   9,B   8,B   2,B   4)     87.6573         0.010000   
    211. D(B   9,B   8,B   2,B   3)     37.6988         0.010000   
    212. D(B   9,B   8,B   2,B   1)    174.1154         0.010000   
    213. D(B   7,B   8,B   2,B   9)   -152.0919         0.010000   
    214. D(B   7,B   8,B   2,B   4)    -64.4346         0.010000   
    215. D(B   7,B   8,B   2,B   3)   -114.3931         0.010000   
    216. D(B   7,B   8,B   2,B   1)     22.0235         0.010000   
    217. D(B  10,B   9,B   8,B   2)    -85.9295         0.014087   
    218. D(B   3,B   9,B   8,B  10)     42.9146         0.014087   
    219. D(B   3,B   9,B   8,B   2)    -43.0149         0.014087   
    220. D(B   2,B   9,B   8,B  10)     85.9295         0.014087   
    221. D(B   2,B   9,B   8,B   7)     42.8805         0.014087   
    222. D(B  10,B   9,B   3,B   2)     98.5976         0.010000   
    223. D(B   8,B   9,B   3,B  10)    -49.2364         0.010000   
    224. D(B   8,B   9,B   3,B   4)      0.0828         0.010000   
    225. D(B   8,B   9,B   3,B   2)     49.3612         0.010000   
    226. D(B   2,B   9,B   3,B  10)    -98.5976         0.010000   
    227. D(B   2,B   9,B   3,B   4)    -49.2784         0.010000   
    228. D(B  10,B   9,B   2,B   1)     67.3698         0.010000   
    229. D(B   8,B   9,B   2,B   4)   -103.3646         0.010000   
    230. D(B   8,B   9,B   2,B   3)   -135.6887         0.010000   
    231. D(B   8,B   9,B   2,B   1)     -8.5210         0.010000   
    232. D(B   3,B   9,B   8,B   7)     -0.1344         0.014087   
    233. D(B   3,B   9,B   2,B   8)    135.6887         0.010000   
    234. D(B   3,B   9,B   2,B   4)     32.3241         0.010000   
    235. D(B   3,B   9,B   2,B   1)    127.1677         0.010000   
    236. D(B   9,B  10,B   3,B   2)    -59.8171         0.010000   
    237. D(B   8,B  10,B   3,B   9)     32.3056         0.010000   
    238. D(B   8,B  10,B   3,B   4)   -103.4165         0.010000   
    239. D(B   8,B  10,B   3,B   2)    -27.5115         0.010000   
    240. D(B   4,B  10,B   3,B   9)    135.7221         0.010000   
    241. D(B   4,B  10,B   3,B   2)     75.9049         0.010000   
    242. D(B   8,B  10,B   9,B   3)   -135.7782         0.010000   
    243. D(B   8,B  10,B   9,B   2)    -75.9529         0.010000   
    244. D(B   4,B  10,B   9,B   8)    103.4290         0.010000   
    245. D(B   4,B  10,B   9,B   3)    -32.3492         0.010000   
    246. D(B   4,B  10,B   9,B   2)     27.4761         0.010000   
    247. D(B   3,B  10,B   9,B   8)    135.7782         0.010000   
    248. D(B   9,B  10,B   8,B   2)     62.6607         0.010000   
    249. D(B   4,B  10,B   8,B   9)    -87.6147         0.010000   
    250. D(B   4,B  10,B   8,B   7)     64.3815         0.010000   
    251. D(B   4,B  10,B   8,B   2)    -24.9540         0.010000   
    252. D(B   3,B  10,B   8,B   9)    -37.6357         0.010000   
    253. D(B   3,B  10,B   8,B   7)    114.3605         0.010000   
    254. D(B   3,B  10,B   8,B   2)     25.0251         0.010000   
    255. D(B   9,B  10,B   4,B   3)     37.6786         0.010000   
    256. D(B   3,B  10,B   9,B   2)     59.8253         0.010000   
    257. D(B   9,B  10,B   4,B   2)    -24.9984         0.010000   
    258. D(B   8,B  10,B   4,B   5)    -64.4230         0.010000   
    259. D(B   8,B  10,B   4,B   3)     87.6383         0.010000   
    260. D(B   8,B  10,B   4,B   2)     24.9613         0.010000   
    261. D(B   3,B  10,B   4,B   5)   -152.0613         0.010000   
    262. D(B   3,B  10,B   4,B   2)    -62.6770         0.010000   
    263. D(B   9,B  10,B   3,B   4)   -135.7221         0.010000   
    264. D(B   6,B  11,B  10,B   8)     52.9621         0.010000   
    265. D(B   6,B  11,B  10,B   3)    -46.2955         0.010000   
    266. D(B   5,B  11,B  10,B   9)     80.9985         0.010000   
    267. D(B   5,B  11,B  10,B   8)     87.4631         0.010000   
    268. D(B   5,B  11,B  10,B   3)    -11.7945         0.010000   
    269. D(B   6,B  11,B   7,B   8)   -174.1149         0.010000   
    270. D(B   6,B  11,B   7,B   1)    -87.6231         0.010000   
    271. D(B   5,B  11,B   7,B   8)   -111.4541         0.010000   
    272. D(B   5,B  11,B   7,B   6)     62.6608         0.010000   
    273. D(B   5,B  11,B   7,B   1)    -24.9623         0.010000   
    274. D(B   5,B  11,B   7,B   0)     25.0188         0.010000   
    275. D(B  10,B  11,B   6,B   5)     42.9021         0.014089   
    276. D(B  10,B  11,B   6,B   0)     -0.1016         0.014089   
    277. D(B   7,B  11,B   6,B   5)     85.9322         0.014089   
    278. D(B   7,B  11,B   6,B   0)     42.9285         0.014089   
    279. D(B   5,B  11,B   6,B   7)    -85.9322         0.014089   
    280. D(B   6,B  11,B   7,B   0)    -37.6420         0.010000   
    281. D(B   5,B  11,B   6,B   0)    -43.0037         0.014089   
    282. D(B   7,B  11,B   5,B   6)    -62.6956         0.010000   
    283. D(B   7,B  11,B   5,B   4)    111.4086         0.010000   
    284. D(B   5,B  11,B  10,B   4)    -18.2828         0.010000   
    285. D(B   7,B  11,B   5,B   1)     24.9499         0.010000   
    286. D(B   7,B  11,B   5,B   0)    -25.0084         0.010000   
    287. D(B   6,B  11,B   5,B   4)    174.1042         0.010000   
    288. D(B   6,B  11,B  10,B   4)    -52.7838         0.010000   
    289. D(B   6,B  11,B   5,B   1)     87.6454         0.010000   
    290. D(B   6,B  11,B   5,B   0)     37.6871         0.010000   
    -----------------------------------------------------------------

Number of atoms                         .... 12
Number of degrees of freedom            .... 290


         *************************************************************
         *                GEOMETRY OPTIMIZATION CYCLE   1            *
         *************************************************************
---------------------------------
CARTESIAN COORDINATES (ANGSTROEM)
---------------------------------
  B      1.930200    0.586376    0.591487
  B      0.579301    1.089126    1.090652
  B     -0.980252    0.780222    0.777611
  B     -1.929676   -0.586216    0.592527
  B     -0.578516   -1.088988    1.091357
  B      0.980759   -0.780164    0.776725
  B      1.925886   -0.598317   -0.592651
  B      0.984894    0.773952   -0.777007
  B     -0.572725    1.092166   -1.091336
  B     -1.926477    0.598406   -0.591430
  B     -0.985301   -0.774133   -0.776388
  B      0.571906   -1.092427   -1.091547

----------------------------
CARTESIAN COORDINATES (A.U.)
----------------------------
  NO LB      ZA    FRAG     MASS         X           Y           Z
   0 B     5.0000    0    10.810    3.647549    1.108089    1.117748
   1 B     5.0000    0    10.810    1.094720    2.058149    2.061034
   2 B     5.0000    0    10.810   -1.852407    1.474406    1.469472
   3 B     5.0000    0    10.810   -3.646560   -1.107787    1.119714
   4 B     5.0000    0    10.810   -1.093237   -2.057890    2.062366
   5 B     5.0000    0    10.810    1.853366   -1.474297    1.467798
   6 B     5.0000    0    10.810    3.639398   -1.130655   -1.119948
   7 B     5.0000    0    10.810    1.861180    1.462557   -1.468331
   8 B     5.0000    0    10.810   -1.082293    2.063894   -2.062326
   9 B     5.0000    0    10.810   -3.640514    1.130823   -1.117640
  10 B     5.0000    0    10.810   -1.861949   -1.462900   -1.467161
  11 B     5.0000    0    10.810    1.080746   -2.064389   -2.062725

--------------------------------
INTERNAL COORDINATES (ANGSTROEM)
--------------------------------
 B      0   0   0     0.000000000000     0.00000000     0.00000000
 B      1   0   0     1.525401857530     0.00000000     0.00000000
 B      2   1   0     1.620376563181   136.57785925     0.00000000
 B      3   2   1     1.674161042895   136.28379418    46.34703246
 B      4   3   2     1.525531528944    74.36911927     8.59695996
 B      5   4   3     1.620402367816   136.55076574   316.97861477
 B      6   5   4     1.673776193629   136.29685118   313.66006702
 B      1   2   3     1.673787352690    74.36258873    42.96425139
 B      8   1   2     1.620567612332   136.33775622   351.44271197
 B      9   8   1     1.525237675750   136.54813823   313.71752188
 B      4   3   2     1.673644806045    82.07196168   292.68413329
 B      7   6   5     1.525222957449    74.40372720   351.45947592

---------------------------
INTERNAL COORDINATES (A.U.)
---------------------------
 B      0   0   0     0.000000000000     0.00000000     0.00000000
 B      1   0   0     2.882591754907     0.00000000     0.00000000
 B      2   1   0     3.062067938237   136.57785925     0.00000000
 B      3   2   1     3.163705875151   136.28379418    46.34703246
 B      4   3   2     2.882836798367    74.36911927     8.59695996
 B      5   4   3     3.062116701930   136.55076574   316.97861477
 B      6   5   4     3.162978615436   136.29685118   313.66006702
 B      1   2   3     3.162999703006    74.36258873    42.96425139
 B      8   1   2     3.062428968810   136.33775622   351.44271197
 B      9   8   1     2.882281496306   136.54813823   313.71752188
 B      4   3   2     3.162730328886    82.07196168   292.68413329
 B      7   6   5     2.882253682748    74.40372720   351.45947592

---------------------
BASIS SET INFORMATION
---------------------
There are 1 groups of distinct atoms

 Group   1 Type B   : 11s6p1d contracted to 5s3p1d pattern {62111/411/1}

Atom   0B    basis set group =>   1
Atom   1B    basis set group =>   1
Atom   2B    basis set group =>   1
Atom   3B    basis set group =>   1
Atom   4B    basis set group =>   1
Atom   5B    basis set group =>   1
Atom   6B    basis set group =>   1
Atom   7B    basis set group =>   1
Atom   8B    basis set group =>   1
Atom   9B    basis set group =>   1
Atom  10B    basis set group =>   1
Atom  11B    basis set group =>   1
---------------------------------
AUXILIARY/J BASIS SET INFORMATION
---------------------------------
There are 1 groups of distinct atoms

 Group   1 Type B   : 8s3p3d contracted to 6s3p3d pattern {311111/111/111}

Atom   0B    basis set group =>   1
Atom   1B    basis set group =>   1
Atom   2B    basis set group =>   1
Atom   3B    basis set group =>   1
Atom   4B    basis set group =>   1
Atom   5B    basis set group =>   1
Atom   6B    basis set group =>   1
Atom   7B    basis set group =>   1
Atom   8B    basis set group =>   1
Atom   9B    basis set group =>   1
Atom  10B    basis set group =>   1
Atom  11B    basis set group =>   1


           ************************************************************
           *        Program running with 8 parallel MPI-processes     *
           *              working on a common directory               *
           ************************************************************
------------------------------------------------------------------------------
                             ORCA STARTUP CALCULATIONS
                           -- RI-GTO INTEGRALS CHOSEN --
------------------------------------------------------------------------------
------------------------------------------------------------------------------
                   ___                                                        
                  /   \      - P O W E R E D   B Y -                         
                 /     \                                                     
                 |  |  |   _    _      __       _____    __    __             
                 |  |  |  | |  | |    /  \     |  _  \  |  |  /  |          
                  \  \/   | |  | |   /    \    | | | |  |  | /  /          
                 / \  \   | |__| |  /  /\  \   | |_| |  |  |/  /          
                |  |  |   |  __  | /  /__\  \  |    /   |      \           
                |  |  |   | |  | | |   __   |  |    \   |  |\   \          
                \     /   | |  | | |  |  |  |  | |\  \  |  | \   \       
                 \___/    |_|  |_| |__|  |__|  |_| \__\ |__|  \__/        
                                                                              
                      - O R C A' S   B I G   F R I E N D -                    
                                      &                                       
                       - I N T E G R A L  F E E D E R -                       
                                                                              
 v1 FN, 2020, v2 2021, v3 2022-2024                                           
------------------------------------------------------------------------------


----------------------
SHARK INTEGRAL PACKAGE
----------------------

Number of atoms                             ...     12
Number of basis functions                   ...    228
Number of shells                            ...    108
Maximum angular momentum                    ...      2
Integral batch strategy                     ... SHARK/LIBINT Hybrid
RI-J (if used) integral strategy            ... SPLIT-RIJ (Revised 2003 algorithm where possible)
Printlevel                                  ...      1
Contraction scheme used                     ... SEGMENTED contraction
Prescreening option                         ... SCHWARTZ
   Thresh                                   ... 2.500e-11
   Tcut                                     ... 2.500e-12
   Tpresel                                  ... 2.500e-12 
Coulomb Range Separation                    ... NOT USED
Exchange Range Separation                   ... NOT USED
Multipole approximations                    ... NOT USED
Finite Nucleus Model                        ... NOT USED
CABS basis                                  ... NOT available
Auxiliary Coulomb fitting basis             ... AVAILABLE
   # of basis functions in Aux-J            ...    360
   # of shells in Aux-J                     ...    144
   Maximum angular momentum in Aux-J        ...      2
Auxiliary J/K fitting basis                 ... NOT available
Auxiliary Correlation fitting basis         ... NOT available
Auxiliary 'external' fitting basis          ... NOT available

Checking pre-screening integrals            ... done (  0.0 sec) Dimension = 108
   => SHARK Basis and OBASIS are compatible. Storing Pre-screening
Shell pair information
Shell pair cut-off parameter TPreSel        ...   2.5e-12
Total number of shell pairs                 ...      5886
Shell pairs after pre-screening             ...      5702
Total number of primitive shell pairs       ...     23700
Primitive shell pairs kept                  ...     16978
          la=0 lb=0:   1662 shell pairs
          la=1 lb=0:   2152 shell pairs
          la=1 lb=1:    666 shell pairs
          la=2 lb=0:    712 shell pairs
          la=2 lb=1:    432 shell pairs
          la=2 lb=2:     78 shell pairs

Checking whether 4 symmetric matrices of dimension 228 fit in memory
:Max Core in MB      =   1500.00
 MB in use           =      7.44
 MB left             =   1492.56
 MB needed           =      0.80
 Data fit in memory  = YES
Calculating RI/J V-Matrix + Cholesky decomp.... done (  0.0 sec)
Calculating Nuclear repulsion               ... done (  0.0 sec) ENN=    381.731248161400 Eh

Diagonalization of the overlap matrix:
Smallest eigenvalue                        ... 3.054e-06
Time for diagonalization                   ...    0.003 sec
Threshold for overlap eigenvalues          ... 1.000e-07
Number of eigenvalues below threshold      ... 0
Time for construction of square roots      ...    0.003 sec
Total time needed                          ...    0.008 sec

-------------------
DFT GRID GENERATION
-------------------

General Integration Accuracy     IntAcc      ... 4.388
Radial Grid Type                 RadialGrid  ... OptM3 with GC (2021)
Angular Grid (max. ang.)         AngularGrid ... 4 (Lebedev-302)
Angular grid pruning method      GridPruning ... 4 (adaptive)
Weight generation scheme         WeightScheme... mBecke (2022)
Basis function cutoff            BFCut       ... 1.0000e-11
Integration weight cutoff        WCut        ... 1.0000e-14
Partially contracted basis set               ... off
Rotationally invariant grid construction     ... off
Angular grids for H and He will be reduced by one unit

Total number of grid points                  ...    69970
Total number of batches                      ...     1100
Average number of points per batch           ...       63
Average number of grid points per atom       ...     5831
Grids setup in   0.3 sec
Initializing property integral containers    ... done (  0.0 sec)

SHARK setup successfully completed in   0.5 seconds

Maximum memory used throughout the entire STARTUP-calculation: 20.5 MB


           ************************************************************
           *        Program running with 8 parallel MPI-processes     *
           *              working on a common directory               *
           ************************************************************
-------------------------------------------------------------------------------
                                 ORCA GUESS
                   Start orbitals & Density for SCF / CASSCF
-------------------------------------------------------------------------------

------------
SCF SETTINGS
------------
Hamiltonian:
 Density Functional     Method          .... DFT(GTOs)
  Functional kind                       .... Exchange
  Functional name                       .... Re-regularized SCAN exchange by Furness et al
  Functional family                     .... MGGA
  Functional refs                              
    [ 0] J. W. Furness, A. D. Kaplan, J. Ning, J. P. Perdew, and J. Sun.,  J. Phys. Chem. Lett. 11, 8208-8215 (2020), doi: 10.1021/acs.jpclett.0c02405
    [ 1] J. W. Furness, A. D. Kaplan, J. Ning, J. P. Perdew, and J. Sun.,  J. Phys. Chem. Lett. 11, 9248-9248 (2020), doi: 10.1021/acs.jpclett.0c03077
  Functional external parameters        .... 6
    Parameter  0 _c1        =  6.670000e-01 : c1 parameter        
    Parameter  1 _c2        =  8.000000e-01 : c2 parameter        
    Parameter  2 _d         =  1.240000e+00 : d parameter         
    Parameter  3 _k1        =  6.500000e-02 : k1 parameter        
    Parameter  4 _eta       =  1.000000e-03 : eta parameter       
    Parameter  5 _dp2       =  3.610000e-01 : dp2 parameter       
  Functional kind                       .... Correlation
  Functional name                       .... Re-regularized SCAN correlation by Furness et al
  Functional family                     .... MGGA
  Functional refs                              
    [ 0] J. W. Furness, A. D. Kaplan, J. Ning, J. P. Perdew, and J. Sun.,  J. Phys. Chem. Lett. 11, 8208-8215 (2020), doi: 10.1021/acs.jpclett.0c02405
    [ 1] J. W. Furness, A. D. Kaplan, J. Ning, J. P. Perdew, and J. Sun.,  J. Phys. Chem. Lett. 11, 9248-9248 (2020), doi: 10.1021/acs.jpclett.0c03077
  Functional external parameters        .... 1
    Parameter  0 _eta       =  1.000000e-03 : Regularization parameter
 Gradients option       PostSCFGGA      .... off
 RI-approximation to the Coulomb term is turned on
   Number of AuxJ basis functions       .... 360


General Settings:
 Integral files         IntName         .... b12_hexagonal_prism_m3_spinopt
 Hartree-Fock type      HFTyp           .... UHF
 Total Charge           Charge          ....    0
 Multiplicity           Mult            ....    3
 Number of Electrons    NEL             ....   60
 Basis Dimension        Dim             ....  228
 Nuclear Repulsion      ENuc            ....    381.7312481614 Eh

Convergence Acceleration:
 AO-DIIS                CNVDIIS         .... on
   Start iteration      DIISMaxIt       ....    12
   Startup error        DIISStart       ....  0.200000
   # of expansion vecs  DIISMaxEq       ....     5
   Bias factor          DIISBfac        ....   1.050
   Max. coefficient     DIISMaxC        ....  10.000
 MO-DIIS                CNVKDIIS        .... off
 Trust-Rad. Augm. Hess. CNVTRAH         .... auto
   Auto Start mean grad. ratio tolernc. ....  1.125000
   Auto Start start iteration           ....    50
   Auto Start num. interpolation iter.  ....    10
   Max. Number of Micro iterations      ....    24
   Max. Number of Macro iterations      .... Maxiter - #DIIS iter
   Number of Davidson start vectors     ....     2
   Converg. threshold    (grad. norm)   ....   1.000e-05
   Grad. Scal. Fac. for Micro threshold ....   0.100
   Minimum threshold for Micro iter.    ....   1.000e-02
   NR start threshold (gradient norm)   ....   1.000e-04
   Initial trust radius                 ....   0.400
   Minimum AH scaling param. (alpha)    ....   1.000
   Maximum AH scaling param. (alpha)    .... 1000.000
   Quad. conv. algorithm                .... NR
   White noise on init. David. guess    .... on
   Maximum white noise                  ....   0.010
   Pseudo random numbers                .... off
   Inactive MOs                         .... canonical
   Orbital update algorithm             .... Taylor
   Preconditioner                       .... Diag
   Full preconditioner red. dimension   ....   250
   COSX micro iterations for RIJONX calc.... off
 SOSCF                 CNVSOSCF           .... on
   Start iteration     SOSCFMaxIt         ....   150
   Startup grad/error  SOSCFStart         ....  0.003300
   Hessian update      SOSCFHessUp        .... L-BFGS
   Autom. constraints  SOSCFAutoConstrain .... off
 Level Shifting         CNVShift        .... on
   Level shift para.    LevelShift      ....    0.2500
   Turn off err/grad.   ShiftErr        ....    0.0010
 Zerner damping         CNVZerner       .... off
 Static damping         CNVDamp         .... on
   Fraction old density DampFac         ....    0.7000
   Max. Damping (<1)    DampMax         ....    0.9800
   Min. Damping (>=0)   DampMin         ....    0.0000
   Turn off err/grad.   DampErr         ....    0.1000

SCF Procedure:
 Maximum # iterations   MaxIter         ....   125
 SCF integral mode      SCFMode         .... Direct
   Integral package                     .... SHARK and LIBINT hybrid scheme
 Reset frequency        DirectResetFreq ....    20
 Integral Threshold     Thresh          ....  2.500e-11 Eh
 Primitive CutOff       TCut            ....  2.500e-12 Eh

Convergence Tolerance:
 Convergence Check Mode ConvCheckMode   .... Total+1el-Energy
 Convergence forced     ConvForced      .... 0
 Energy Change          TolE            ....  1.000e-08 Eh
 1-El. energy change                    ....  1.000e-05 Eh
 Orbital Gradient       TolG            ....  1.000e-05
 Orbital Rotation angle TolX            ....  1.000e-05
 DIIS Error             TolErr          ....  5.000e-07

------------------------------
INITIAL GUESS: MODEL POTENTIAL
------------------------------
Loading Hartree-Fock densities                     ... done
Calculating cut-offs                               ... done
Initializing the effective Hamiltonian             ... done
Setting up the integral package (SHARK)            ... done
Starting the Coulomb interaction                   ... done (   0.0 sec)
Making the grid                                    ... done (   0.1 sec)
Mapping shells                                     ... done
Starting the XC term evaluation                    ... done (   0.1 sec)
  promolecular density results
     # of electrons  =     60.010783593
     EX              =    -45.853047489
     EC              =     -1.915077619
     EX+EC           =    -47.768125107
Transforming the Hamiltonian                       ... done (   0.0 sec)
Diagonalizing the Hamiltonian                      ... done (   0.0 sec)
Back transforming the eigenvectors                 ... done (   0.0 sec)
Now organizing SCF variables                       ... done
                      ------------------
                      INITIAL GUESS DONE (   0.2 sec)
                      ------------------
             **** ENERGY FILE WAS UPDATED (b12_hexagonal_prism_m3_spinopt.en.tmp) ****
Finished Guess after   0.3 sec
Maximum memory used throughout the entire GUESS-calculation: 10.9 MB


           ************************************************************
           *        Program running with 8 parallel MPI-processes     *
           *              working on a common directory               *
           ************************************************************

-------------------------------------------------------------------------------------------
                                      ORCA LEAN-SCF
                              memory conserving SCF solver
-------------------------------------------------------------------------------------------

----------------------------------------D-I-I-S--------------------------------------------
Iteration    Energy (Eh)           Delta-E    RMSDP     MaxDP     DIISErr   Damp  Time(sec)
-------------------------------------------------------------------------------------------
               ***  Starting incremental Fock matrix formation  ***
    1    -297.2757723408375341     0.00e+00  1.34e-01  1.67e+00  7.06e-02  0.700   0.8
Warning: op=0 Small HOMO/LUMO gap (   0.031) - skipping pre-diagonalization
         Will do a full diagonalization
    2    -297.5170613938829547    -2.41e-01  9.93e-02  1.33e+00  3.31e-02  0.700   0.9
                               ***Turning on AO-DIIS***
    3    -297.6028428217817918    -8.58e-02  4.72e-02  7.57e-01  1.27e-02  0.700   0.8
    4    -297.6508323818079589    -4.80e-02  8.02e-02  1.36e+00  6.68e-03  0.000   0.8
    5    -297.7626960304444310    -1.12e-01  8.07e-03  1.08e-01  4.85e-03  0.000   0.7
                              *** Initializing SOSCF ***
---------------------------------------S-O-S-C-F--------------------------------------
Iteration    Energy (Eh)           Delta-E    RMSDP     MaxDP     MaxGrad    Time(sec)
--------------------------------------------------------------------------------------
    6    -297.7654982389570932    -2.80e-03  3.59e-03  5.65e-02  1.82e-03     0.8
               *** Restarting incremental Fock matrix formation ***
    7    -297.7659189574251286    -4.21e-04  3.95e-03  6.09e-02  1.62e-03     0.9
    8    -297.7659636269989960    -4.47e-05  4.71e-03  7.10e-02  2.79e-03     0.7
    9    -297.7661199928096494    -1.56e-04  2.91e-03  4.63e-02  1.02e-03     0.7
   10    -297.7661555294934033    -3.55e-05  1.26e-03  1.73e-02  7.04e-04     0.7
   11    -297.7661930639835646    -3.75e-05  1.92e-03  2.49e-02  4.09e-04     0.7
   12    -297.7662080900392993    -1.50e-05  7.01e-04  9.47e-03  3.66e-04     0.7
   13    -297.7662151893274540    -7.10e-06  5.82e-04  9.94e-03  3.66e-04     0.7
   14    -297.7662216844934164    -6.50e-06  1.11e-03  1.55e-02  3.41e-04     0.6
   15    -297.7662338711070333    -1.22e-05  8.39e-04  9.88e-03  2.92e-04     0.8
   16    -297.7662462761946927    -1.24e-05  9.46e-04  1.29e-02  3.43e-04     0.7
   17    -297.7662565641928722    -1.03e-05  1.20e-03  1.55e-02  3.79e-04     0.8
   18    -297.7662591606462001    -2.60e-06  6.09e-04  7.12e-03  4.22e-04     0.7
   19    -297.7662650378989611    -5.88e-06  3.73e-04  6.40e-03  1.90e-04     0.7
   20    -297.7662659433622139    -9.05e-07  2.87e-04  5.06e-03  6.02e-05     0.6
   21    -297.7662661725374846    -2.29e-07  9.88e-05  1.78e-03  3.21e-05     0.6
   22    -297.7662662072309558    -3.47e-08  1.85e-04  3.19e-03  3.08e-05     0.6
   23    -297.7662662457624947    -3.85e-08  1.50e-04  2.92e-03  1.07e-05     0.7
   24    -297.7662662512190082    -5.46e-09  1.87e-04  3.74e-03  5.57e-06     0.6
                 **** Energy Check signals convergence ****

               *****************************************************
               *                     SUCCESS                       *
               *           SCF CONVERGED AFTER  24 CYCLES          *
               *****************************************************

             **** ENERGY FILE WAS UPDATED (b12_hexagonal_prism_m3_spinopt.en.tmp) ****

----------------
TOTAL SCF ENERGY
----------------

Total Energy       :       -297.76626625330039 Eh           -8102.63203 eV

Components:
Nuclear Repulsion  :        381.73124816139978 Eh           10387.43535 eV
Electronic Energy  :       -679.49751441470016 Eh          -18490.06738 eV
One Electron Energy:      -1151.92323765599076 Eh          -31345.42487 eV
Two Electron Energy:        472.42572324129060 Eh           12855.35748 eV

Virial components:
Potential Energy   :       -594.24230787082706 Eh          -16170.15527 eV
Kinetic Energy     :        296.47604161752668 Eh            8067.52324 eV
Virial Ratio       :          2.00435186812646

DFT components:
N(Alpha)           :       30.999913430365 electrons
N(Beta)            :       28.999954130193 electrons
N(Total)           :       59.999867560558 electrons
E(X)               :      -46.849334258506 Eh       
E(C)               :       -1.912850274234 Eh       
E(XC)              :      -48.762184532741 Eh       

---------------
SCF CONVERGENCE
---------------

  Last Energy change         ...    5.4565e-09  Tolerance :   1.0000e-08
  Last MAX-Density change    ...    3.7363e-03  Tolerance :   1.0000e-07
  Last RMS-Density change    ...    1.8668e-04  Tolerance :   5.0000e-09
  Last DIIS Error            ...    1.8195e-03  Tolerance :   5.0000e-07
  Last Orbital Gradient      ...    5.5691e-06  Tolerance :   1.0000e-05
  Last Orbital Rotation      ...    1.9738e-04  Tolerance :   1.0000e-05


----------------------
UHF SPIN CONTAMINATION
----------------------

Warning: in a DFT calculation there is little theoretical justification to 
         calculate <S**2> as in Hartree-Fock theory. We will do it anyways
         but you should keep in mind that the values have only limited relevance

Expectation value of <S**2>     :     2.050081
Ideal value S*(S+1) for S=1.0   :     2.000000
Deviation                       :     0.050081

----------------
ORBITAL ENERGIES
----------------
                 SPIN UP ORBITALS
  NO   OCC          E(Eh)            E(eV) 
   0   1.0000      -6.691453      -182.0837 
   1   1.0000      -6.691436      -182.0832 
   2   1.0000      -6.677925      -181.7156 
   3   1.0000      -6.677895      -181.7148 
   4   1.0000      -6.677644      -181.7079 
   5   1.0000      -6.677590      -181.7065 
   6   1.0000      -6.665376      -181.3741 
   7   1.0000      -6.664999      -181.3638 
   8   1.0000      -6.658430      -181.1851 
   9   1.0000      -6.658419      -181.1848 
  10   1.0000      -6.647590      -180.8901 
  11   1.0000      -6.647204      -180.8796 
  12   1.0000      -0.797619       -21.7043 
  13   1.0000      -0.717005       -19.5107 
  14   1.0000      -0.591638       -16.0993 
  15   1.0000      -0.572615       -15.5816 
  16   1.0000      -0.533260       -14.5107 
  17   1.0000      -0.464670       -12.6443 
  18   1.0000      -0.458433       -12.4746 
  19   1.0000      -0.387915       -10.5557 
  20   1.0000      -0.365122        -9.9355 
  21   1.0000      -0.359571        -9.7844 
  22   1.0000      -0.349517        -9.5108 
  23   1.0000      -0.343712        -9.3529 
  24   1.0000      -0.337404        -9.1812 
  25   1.0000      -0.319112        -8.6835 
  26   1.0000      -0.297581        -8.0976 
  27   1.0000      -0.256046        -6.9674 
  28   1.0000      -0.246465        -6.7067 
  29   1.0000      -0.214382        -5.8336 
  30   1.0000      -0.184496        -5.0204 
  31   0.0000      -0.132144        -3.5958 
  32   0.0000      -0.115953        -3.1552 
  33   0.0000      -0.091702        -2.4954 
  34   0.0000      -0.072615        -1.9760 
  35   0.0000      -0.070466        -1.9175 
  36   0.0000      -0.067037        -1.8242 
  37   0.0000      -0.025270        -0.6876 
  38   0.0000      -0.022476        -0.6116 
  39   0.0000      -0.019109        -0.5200 
  40   0.0000      -0.001367        -0.0372 
  41   0.0000       0.056335         1.5330 

                 SPIN DOWN ORBITALS
  NO   OCC          E(Eh)            E(eV) 
   0   1.0000      -6.686685      -181.9539 
   1   1.0000      -6.686669      -181.9535 
   2   1.0000      -6.676793      -181.6848 
   3   1.0000      -6.676761      -181.6839 
   4   1.0000      -6.675242      -181.6426 
   5   1.0000      -6.675193      -181.6412 
   6   1.0000      -6.662173      -181.2869 
   7   1.0000      -6.661791      -181.2765 
   8   1.0000      -6.659609      -181.2172 
   9   1.0000      -6.659602      -181.2170 
  10   1.0000      -6.644269      -180.7998 
  11   1.0000      -6.643882      -180.7892 
  12   1.0000      -0.789182       -21.4747 
  13   1.0000      -0.712462       -19.3871 
  14   1.0000      -0.577642       -15.7185 
  15   1.0000      -0.570481       -15.5236 
  16   1.0000      -0.523460       -14.2441 
  17   1.0000      -0.457531       -12.4500 
  18   1.0000      -0.452531       -12.3140 
  19   1.0000      -0.369906       -10.0656 
  20   1.0000      -0.361927        -9.8485 
  21   1.0000      -0.343710        -9.3528 
  22   1.0000      -0.338842        -9.2204 
  23   1.0000      -0.336092        -9.1455 
  24   1.0000      -0.333764        -9.0822 
  25   1.0000      -0.309871        -8.4320 
  26   1.0000      -0.271840        -7.3972 
  27   1.0000      -0.243213        -6.6182 
  28   1.0000      -0.210831        -5.7370 
  29   0.0000      -0.200782        -5.4636 
  30   0.0000      -0.139724        -3.8021 
  31   0.0000      -0.088048        -2.3959 
  32   0.0000      -0.086801        -2.3620 
  33   0.0000      -0.060424        -1.6442 
  34   0.0000      -0.052809        -1.4370 
  35   0.0000      -0.047923        -1.3040 
  36   0.0000      -0.046744        -1.2720 
  37   0.0000      -0.015190        -0.4133 
  38   0.0000      -0.012215        -0.3324 
  39   0.0000      -0.002714        -0.0739 
*Only the first 10 virtual orbitals were printed.

                    ********************************
                    * MULLIKEN POPULATION ANALYSIS *
                    ********************************

--------------------------------------------
MULLIKEN ATOMIC CHARGES AND SPIN POPULATIONS
--------------------------------------------
   0 B :    0.171723    0.467838
   1 B :   -0.653879   -0.143258
   2 B :    0.338551   -0.217628
   3 B :    0.221956    0.654019
   4 B :   -0.530257    0.314933
   5 B :    0.452390   -0.075338
   6 B :    0.171338    0.466775
   7 B :    0.452919   -0.075087
   8 B :   -0.530482    0.314970
   9 B :    0.220830    0.653845
  10 B :    0.338753   -0.217938
  11 B :   -0.653842   -0.143129
Sum of atomic charges         :    0.0000000
Sum of atomic spin populations:    2.0000000

-----------------------------------------------------
MULLIKEN REDUCED ORBITAL CHARGES AND SPIN POPULATIONS
-----------------------------------------------------
CHARGE
  0 B s       :     2.442963  s :     2.442963
      pz      :     0.710669  p :     2.343920
      px      :     0.922683
      py      :     0.710569
      dz2     :     0.008524  d :     0.041394
      dxz     :     0.009383
      dyz     :     0.004320
      dx2y2   :     0.009788
      dxy     :     0.009379

  1 B s       :     3.695242  s :     3.695242
      pz      :     0.507959  p :     1.925238
      px      :     0.908963
      py      :     0.508316
      dz2     :     0.007622  d :     0.033399
      dxz     :     0.007121
      dyz     :     0.003303
      dx2y2   :     0.008242
      dxy     :     0.007110

  2 B s       :     2.508861  s :     2.508861
      pz      :     0.664805  p :     2.111110
      px      :     0.781724
      py      :     0.664581
      dz2     :     0.009208  d :     0.041478
      dxz     :     0.007098
      dyz     :     0.008251
      dx2y2   :     0.009836
      dxy     :     0.007085

  3 B s       :     2.390810  s :     2.390810
      pz      :     0.708108  p :     2.345941
      px      :     0.929791
      py      :     0.708041
      dz2     :     0.008383  d :     0.041294
      dxz     :     0.009881
      dyz     :     0.003813
      dx2y2   :     0.009343
      dxy     :     0.009875

  4 B s       :     3.556646  s :     3.556646
      pz      :     0.483208  p :     1.940712
      px      :     0.973879
      py      :     0.483624
      dz2     :     0.007345  d :     0.032899
      dxz     :     0.007613
      dyz     :     0.003191
      dx2y2   :     0.007147
      dxy     :     0.007603

  5 B s       :     2.400575  s :     2.400575
      pz      :     0.649735  p :     2.105308
      px      :     0.806467
      py      :     0.649106
      dz2     :     0.009576  d :     0.041727
      dxz     :     0.007214
      dyz     :     0.007702
      dx2y2   :     0.010043
      dxy     :     0.007192

  6 B s       :     2.443186  s :     2.443186
      pz      :     0.710708  p :     2.344084
      px      :     0.922996
      py      :     0.710380
      dz2     :     0.008526  d :     0.041392
      dxz     :     0.009361
      dyz     :     0.004346
      dx2y2   :     0.009791
      dxy     :     0.009368

  7 B s       :     2.399485  s :     2.399485
      pz      :     0.649599  p :     2.105856
      px      :     0.805119
      py      :     0.651137
      dz2     :     0.009579  d :     0.041741
      dxz     :     0.007196
      dyz     :     0.007722
      dx2y2   :     0.010023
      dxy     :     0.007220

  8 B s       :     3.556655  s :     3.556655
      pz      :     0.483041  p :     1.940930
      px      :     0.974558
      py      :     0.483330
      dz2     :     0.007347  d :     0.032898
      dxz     :     0.007618
      dyz     :     0.003181
      dx2y2   :     0.007118
      dxy     :     0.007634

  9 B s       :     2.392092  s :     2.392092
      pz      :     0.707880  p :     2.345801
      px      :     0.930388
      py      :     0.707532
      dz2     :     0.008375  d :     0.041277
      dxz     :     0.009856
      dyz     :     0.003832
      dx2y2   :     0.009348
      dxy     :     0.009866

 10 B s       :     2.507781  s :     2.507781
      pz      :     0.665317  p :     2.111972
      px      :     0.780362
      py      :     0.666293
      dz2     :     0.009213  d :     0.041494
      dxz     :     0.007082
      dyz     :     0.008278
      dx2y2   :     0.009826
      dxy     :     0.007095

 11 B s       :     3.694905  s :     3.694905
      pz      :     0.507773  p :     1.925536
      px      :     0.909686
      py      :     0.508077
      dz2     :     0.007618  d :     0.033401
      dxz     :     0.007133
      dyz     :     0.003293
      dx2y2   :     0.008210
      dxy     :     0.007146


SPIN
  0 B s       :     0.239072  s :     0.239072
      pz      :     0.036402  p :     0.230656
      px      :     0.158159
      py      :     0.036094
      dz2     :    -0.000368  d :    -0.001889
      dxz     :    -0.000330
      dyz     :    -0.000025
      dx2y2   :    -0.000846
      dxy     :    -0.000322

  1 B s       :    -0.025448  s :    -0.025448
      pz      :    -0.039516  p :    -0.119855
      px      :    -0.040397
      py      :    -0.039942
      dz2     :     0.000482  d :     0.002044
      dxz     :     0.000597
      dyz     :    -0.000063
      dx2y2   :     0.000433
      dxy     :     0.000596

  2 B s       :    -0.220856  s :    -0.220856
      pz      :     0.039198  p :     0.001584
      px      :    -0.076877
      py      :     0.039263
      dz2     :     0.001005  d :     0.001643
      dxz     :     0.000523
      dyz     :    -0.000695
      dx2y2   :     0.000289
      dxy     :     0.000522

  3 B s       :     0.391625  s :     0.391625
      pz      :     0.054073  p :     0.262583
      px      :     0.154782
      py      :     0.053727
      dz2     :     0.000046  d :    -0.000188
      dxz     :    -0.000614
      dyz     :     0.000758
      dx2y2   :     0.000225
      dxy     :    -0.000603

  4 B s       :     0.041254  s :     0.041254
      pz      :     0.146563  p :     0.274253
      px      :    -0.018551
      py      :     0.146241
      dz2     :    -0.000546  d :    -0.000574
      dxz     :     0.000190
      dyz     :     0.000083
      dx2y2   :    -0.000488
      dxy     :     0.000186

  5 B s       :    -0.101869  s :    -0.101869
      pz      :     0.056417  p :     0.024680
      px      :    -0.088251
      py      :     0.056513
      dz2     :     0.000190  d :     0.001851
      dxz     :     0.000522
      dyz     :     0.000238
      dx2y2   :     0.000376
      dxy     :     0.000526

  6 B s       :     0.238647  s :     0.238647
      pz      :     0.036350  p :     0.230007
      px      :     0.157022
      py      :     0.036635
      dz2     :    -0.000366  d :    -0.001879
      dxz     :    -0.000326
      dyz     :    -0.000027
      dx2y2   :    -0.000824
      dxy     :    -0.000336

  7 B s       :    -0.101889  s :    -0.101889
      pz      :     0.056495  p :     0.024950
      px      :    -0.087535
      py      :     0.055990
      dz2     :     0.000190  d :     0.001852
      dxz     :     0.000516
      dyz     :     0.000247
      dx2y2   :     0.000394
      dxy     :     0.000506

  8 B s       :     0.041297  s :     0.041297
      pz      :     0.146840  p :     0.274243
      px      :    -0.018776
      py      :     0.146179
      dz2     :    -0.000546  d :    -0.000570
      dxz     :     0.000188
      dyz     :     0.000085
      dx2y2   :    -0.000491
      dxy     :     0.000194

  9 B s       :     0.390394  s :     0.390394
      pz      :     0.054162  p :     0.263651
      px      :     0.154971
      py      :     0.054519
      dz2     :     0.000046  d :    -0.000201
      dxz     :    -0.000608
      dyz     :     0.000748
      dx2y2   :     0.000233
      dxy     :    -0.000620

 10 B s       :    -0.220676  s :    -0.220676
      pz      :     0.038854  p :     0.001090
      px      :    -0.076216
      py      :     0.038452
      dz2     :     0.001003  d :     0.001648
      dxz     :     0.000523
      dyz     :    -0.000694
      dx2y2   :     0.000298
      dxy     :     0.000519

 11 B s       :    -0.025356  s :    -0.025356
      pz      :    -0.039405  p :    -0.119814
      px      :    -0.040518
      py      :    -0.039891
      dz2     :     0.000483  d :     0.002041
      dxz     :     0.000592
      dyz     :    -0.000060
      dx2y2   :     0.000433
      dxy     :     0.000593



                     *******************************
                     * LOEWDIN POPULATION ANALYSIS *
                     *******************************

-------------------------------------------
LOEWDIN ATOMIC CHARGES AND SPIN POPULATIONS
-------------------------------------------
   0 B :   -0.086557    0.222804
   1 B :    0.045393   -0.046318
   2 B :   -0.016154    0.135470
   3 B :   -0.054777    0.254371
   4 B :    0.111795    0.332112
   5 B :    0.000541    0.101302
   6 B :   -0.086637    0.222249
   7 B :    0.000294    0.101480
   8 B :    0.111808    0.332126
   9 B :   -0.054790    0.255279
  10 B :   -0.016459    0.135182
  11 B :    0.045543   -0.046056

----------------------------------------------------
LOEWDIN REDUCED ORBITAL CHARGES AND SPIN POPULATIONS
----------------------------------------------------
CHARGE
  0 B s       :     2.676510  s :     2.676510
      pz      :     0.808257  p :     2.328872
      px      :     0.712256
      py      :     0.808359
      dz2     :     0.016922  d :     0.081175
      dxz     :     0.018135
      dyz     :     0.008455
      dx2y2   :     0.019513
      dxy     :     0.018149

  1 B s       :     2.754575  s :     2.754575
      pz      :     0.592338  p :     2.133784
      px      :     0.948847
      py      :     0.592599
      dz2     :     0.014273  d :     0.066247
      dxz     :     0.014934
      dyz     :     0.006547
      dx2y2   :     0.015582
      dxy     :     0.014912

  2 B s       :     2.686809  s :     2.686809
      pz      :     0.711876  p :     2.250207
      px      :     0.826829
      py      :     0.711502
      dz2     :     0.018152  d :     0.079138
      dxz     :     0.013783
      dyz     :     0.014425
      dx2y2   :     0.019020
      dxy     :     0.013758

  3 B s       :     2.670580  s :     2.670580
      pz      :     0.792797  p :     2.303665
      px      :     0.717892
      py      :     0.792975
      dz2     :     0.016597  d :     0.080532
      dxz     :     0.018917
      dyz     :     0.007287
      dx2y2   :     0.018800
      dxy     :     0.018931

  4 B s       :     2.740457  s :     2.740457
      pz      :     0.554297  p :     2.082725
      px      :     0.973761
      py      :     0.554667
      dz2     :     0.013644  d :     0.065024
      dxz     :     0.015604
      dyz     :     0.006545
      dx2y2   :     0.013659
      dxy     :     0.015573

  5 B s       :     2.676051  s :     2.676051
      pz      :     0.711825  p :     2.244227
      px      :     0.821281
      py      :     0.711121
      dz2     :     0.018334  d :     0.079181
      dxz     :     0.014235
      dyz     :     0.012943
      dx2y2   :     0.019479
      dxy     :     0.014189

  6 B s       :     2.676450  s :     2.676450
      pz      :     0.808225  p :     2.329013
      px      :     0.713091
      py      :     0.807697
      dz2     :     0.016934  d :     0.081175
      dxz     :     0.018092
      dyz     :     0.008499
      dx2y2   :     0.019582
      dxy     :     0.018069

  7 B s       :     2.675916  s :     2.675916
      pz      :     0.711912  p :     2.244578
      px      :     0.819796
      py      :     0.712871
      dz2     :     0.018341  d :     0.079211
      dxz     :     0.014201
      dyz     :     0.012983
      dx2y2   :     0.019441
      dxy     :     0.014245

  8 B s       :     2.740500  s :     2.740500
      pz      :     0.554099  p :     2.082670
      px      :     0.974180
      py      :     0.554391
      dz2     :     0.013642  d :     0.065022
      dxz     :     0.015623
      dyz     :     0.006524
      dx2y2   :     0.013594
      dxy     :     0.015640

  9 B s       :     2.670638  s :     2.670638
      pz      :     0.792687  p :     2.303645
      px      :     0.718897
      py      :     0.792061
      dz2     :     0.016580  d :     0.080507
      dxz     :     0.018884
      dyz     :     0.007317
      dx2y2   :     0.018874
      dxy     :     0.018853

 10 B s       :     2.686636  s :     2.686636
      pz      :     0.712419  p :     2.250647
      px      :     0.825041
      py      :     0.713187
      dz2     :     0.018165  d :     0.079176
      dxz     :     0.013754
      dyz     :     0.014481
      dx2y2   :     0.018998
      dxy     :     0.013777
[...]
      pz      :     0.581619  p :     2.118637
      px      :     0.955682
      py      :     0.581336
      dz2     :     0.014905  d :     0.068615
      dxz     :     0.016092
      dyz     :     0.007099
      dx2y2   :     0.014401
      dxy     :     0.016119

  9 B s       :     2.682400  s :     2.682400
      pz      :     0.783890  p :     2.276859
      px      :     0.709724
      py      :     0.783245
      dz2     :     0.016543  d :     0.080233
      dxz     :     0.018532
      dyz     :     0.007796
      dx2y2   :     0.018850
      dxy     :     0.018513

 10 B s       :     2.689605  s :     2.689605
      pz      :     0.716944  p :     2.226081
      px      :     0.791509
      py      :     0.717628
      dz2     :     0.018695  d :     0.078317
      dxz     :     0.014085
      dyz     :     0.012921
      dx2y2   :     0.018508
      dxy     :     0.014108

 11 B s       :     2.738342  s :     2.738342
      pz      :     0.613921  p :     2.151853
      px      :     0.924102
      py      :     0.613830
      dz2     :     0.015951  d :     0.070381
      dxz     :     0.014845
      dyz     :     0.007993
      dx2y2   :     0.016728
      dxy     :     0.014865


SPIN
  0 B s       :     0.050184  s :     0.050184
      pz      :     0.024724  p :     0.180548
      px      :     0.131338
      py      :     0.024486
      dz2     :    -0.000429  d :    -0.002113
      dxz     :    -0.000442
      dyz     :    -0.000013
      dx2y2   :    -0.000802
      dxy     :    -0.000426

  1 B s       :    -0.020190  s :    -0.020190
      pz      :    -0.021043  p :    -0.043469
      px      :    -0.001439
      py      :    -0.020986
      dz2     :     0.000731  d :     0.004430
      dxz     :     0.001379
      dyz     :    -0.000029
      dx2y2   :     0.000969
      dxy     :     0.001379

  2 B s       :     0.020475  s :     0.020475
      pz      :     0.048175  p :     0.123431
      px      :     0.026999
      py      :     0.048257
      dz2     :     0.001897  d :     0.002820
      dxz     :     0.000871
      dyz     :    -0.001083
      dx2y2   :     0.000264
      dxy     :     0.000872

  3 B s       :     0.046311  s :     0.046311
      pz      :     0.040462  p :     0.217709
      px      :     0.137248
      py      :     0.039999
      dz2     :     0.000554  d :     0.002687
      dxz     :    -0.000853
      dyz     :     0.001983
      dx2y2   :     0.001833
      dxy     :    -0.000829

  4 B s       :     0.040651  s :     0.040651
      pz      :     0.133513  p :     0.278086
      px      :     0.011170
      py      :     0.133403
      dz2     :    -0.000498  d :     0.000120
      dxz     :     0.000935
      dyz     :    -0.000601
      dx2y2   :    -0.000646
      dxy     :     0.000931

  5 B s       :     0.008884  s :     0.008884
      pz      :     0.030344  p :     0.085153
      px      :     0.024391
      py      :     0.030418
      dz2     :     0.000157  d :     0.004391
      dxz     :     0.001465
      dyz     :     0.001075
      dx2y2   :     0.000221
      dxy     :     0.001473

  6 B s       :     0.050136  s :     0.050136
      pz      :     0.024763  p :     0.180401
      px      :     0.130624
      py      :     0.025014
      dz2     :    -0.000427  d :    -0.002109
      dxz     :    -0.000443
      dyz     :    -0.000016
      dx2y2   :    -0.000764
      dxy     :    -0.000460

  7 B s       :     0.008875  s :     0.008875
      pz      :     0.030358  p :     0.085133
      px      :     0.024507
      py      :     0.030268
      dz2     :     0.000155  d :     0.004393
      dxz     :     0.001449
      dyz     :     0.001093
      dx2y2   :     0.000256
      dxy     :     0.001440

  8 B s       :     0.040664  s :     0.040664
      pz      :     0.133429  p :     0.278119
      px      :     0.011204
      py      :     0.133486
      dz2     :    -0.000498  d :     0.000118
      dxz     :     0.000926
      dyz     :    -0.000593
      dx2y2   :    -0.000646
      dxy     :     0.000929

  9 B s       :     0.046284  s :     0.046284
      pz      :     0.040317  p :     0.217637
      px      :     0.136564
      py      :     0.040756
      dz2     :     0.000552  d :     0.002691
      dxz     :    -0.000836
      dyz     :     0.001972
      dx2y2   :     0.001863
      dxy     :    -0.000859

 10 B s       :     0.020487  s :     0.020487
      pz      :     0.048194  p :     0.123445
      px      :     0.027133
      py      :     0.048119
      dz2     :     0.001895  d :     0.002819
      dxz     :     0.000868
      dyz     :    -0.001080
      dx2y2   :     0.000270
      dxy     :     0.000867

 11 B s       :    -0.020177  s :    -0.020177
      pz      :    -0.021045  p :    -0.043453
      px      :    -0.001294
      py      :    -0.021114
      dz2     :     0.000730  d :     0.004427
      dxz     :     0.001372
      dyz     :    -0.000022
      dx2y2   :     0.000974
      dxy     :     0.001373



                      *****************************
                      * MAYER POPULATION ANALYSIS *
                      *****************************

  NA   - Mulliken gross atomic population
  ZA   - Total nuclear charge
  QA   - Mulliken gross atomic charge
  VA   - Mayer's total valence
  BVA  - Mayer's bonded valence
  FA   - Mayer's free valence

  ATOM       NA         ZA         QA         VA         BVA        FA
  0 B      4.8433     5.0000     0.1567     3.8179     3.7145     0.1033
  1 B      5.5090     5.0000    -0.5090     4.0479     4.0372     0.0107
  2 B      4.5942     5.0000     0.4058     2.9216     2.8651     0.0566
  3 B      4.9419     5.0000     0.0581     3.9111     3.7524     0.1587
  4 B      5.4528     5.0000    -0.4528     4.1375     3.9547     0.1828
  5 B      4.6587     5.0000     0.3413     2.9674     2.9273     0.0401
  6 B      4.8431     5.0000     0.1569     3.8167     3.7133     0.1034
  7 B      4.6585     5.0000     0.3415     2.9666     2.9265     0.0401
  8 B      5.4528     5.0000    -0.4528     4.1369     3.9542     0.1828
  9 B      4.9422     5.0000     0.0578     3.9117     3.7532     0.1585
 10 B      4.5945     5.0000     0.4055     2.9228     2.8662     0.0566
 11 B      5.5089     5.0000    -0.5089     4.0483     4.0376     0.0107

  Mayer bond orders larger than 0.100000
B(  0-B ,  1-B ) :   1.5244 B(  0-B ,  2-B ) :  -0.1563 B(  0-B ,  3-B ) :   0.2294 
B(  0-B ,  5-B ) :   0.5416 B(  0-B ,  6-B ) :   0.6300 B(  0-B ,  7-B ) :   0.5414 
B(  0-B ,  9-B ) :   0.2293 B(  0-B , 10-B ) :  -0.2274 B(  0-B , 11-B ) :   0.3309 
B(  1-B ,  2-B ) :   0.6207 B(  1-B ,  3-B ) :   0.1430 B(  1-B ,  4-B ) :   0.4434 
B(  1-B ,  6-B ) :   0.3307 B(  1-B ,  8-B ) :   0.4435 B(  1-B ,  9-B ) :   0.1432 
B(  1-B , 11-B ) :   0.3773 B(  2-B ,  3-B ) :   0.4653 B(  2-B ,  5-B ) :   0.4751 
B(  2-B ,  6-B ) :  -0.2274 B(  2-B ,  7-B ) :   0.4752 B(  2-B ,  9-B ) :   0.4653 
B(  2-B , 10-B ) :   0.5971 B(  3-B ,  4-B ) :   1.4053 B(  3-B ,  5-B ) :  -0.2359 
B(  3-B ,  6-B ) :   0.2293 B(  3-B ,  7-B ) :  -0.2549 B(  3-B ,  8-B ) :   0.3706 
B(  3-B ,  9-B ) :   0.7916 B(  3-B , 10-B ) :   0.4656 B(  3-B , 11-B ) :   0.1431 
B(  4-B ,  5-B ) :   0.5853 B(  4-B ,  8-B ) :   0.5066 B(  4-B ,  9-B ) :   0.3708 
B(  4-B , 11-B ) :   0.4431 B(  5-B ,  6-B ) :   0.5414 B(  5-B ,  7-B ) :   0.8098 
B(  5-B ,  9-B ) :  -0.2549 B(  5-B , 10-B ) :   0.4750 B(  6-B ,  7-B ) :   0.5412 
B(  6-B ,  9-B ) :   0.2293 B(  6-B , 10-B ) :  -0.1565 B(  6-B , 11-B ) :   1.5244 
B(  7-B ,  8-B ) :   0.5850 B(  7-B ,  9-B ) :  -0.2358 B(  7-B , 10-B ) :   0.4751 
B(  8-B ,  9-B ) :   1.4054 B(  8-B , 11-B ) :   0.4433 B(  9-B , 10-B ) :   0.4657 
B(  9-B , 11-B ) :   0.1432 B( 10-B , 11-B ) :   0.6212 

-------
TIMINGS
-------

Total SCF time: 0 days 0 hours 0 min 2 sec 

Total time                  ....       2.849 sec
Sum of individual times     ....       2.291 sec  ( 80.4%)

SCF preparation             ....       0.145 sec  (  5.1%)
Fock matrix formation       ....       1.790 sec  ( 62.8%)
  Startup                   ....       0.022 sec  (  1.2% of F)
  Split-RI-J                ....       0.177 sec  (  9.9% of F)
  XC integration            ....       1.944 sec  (108.6% of F)
    Basis function eval.    ....       0.153 sec  (  7.9% of XC)
    Density eval.           ....       0.710 sec  ( 36.5% of XC)
    XC-Functional eval.     ....       0.037 sec  (  1.9% of XC)
    XC-Potential eval.      ....       0.960 sec  ( 49.4% of XC)
Diagonalization             ....       0.000 sec  (  0.0%)
Density matrix formation    ....       0.047 sec  (  1.6%)
Total Energy calculation    ....       0.027 sec  (  0.9%)
Population analysis         ....       0.095 sec  (  3.3%)
Orbital Transformation      ....       0.029 sec  (  1.0%)
Orbital Orthonormalization  ....       0.000 sec  (  0.0%)
DIIS solution               ....       0.044 sec  (  1.5%)
SOSCF solution              ....       0.114 sec  (  4.0%)
Finished LeanSCF after   3.0 sec

Maximum memory used throughout the entire LEANSCF-calculation: 14.3 MB


-------------------------------------------------------------------------------
                          DFT DISPERSION CORRECTION                            
                                                                               
                                DFTD4 V3.4.0                                   
-------------------------------------------------------------------------------
The R2SCAN3C composite method is recognized
Using three-body term ABC
Active option DFTDOPT                   ...         5   

-------------------------   ----------------
Dispersion correction           -0.005792509
-------------------------   ----------------

------------------   -----------------
gCP correction             0.011200327
------------------   -----------------

-------------------------   --------------------
FINAL SINGLE POINT ENERGY      -297.779122039785
-------------------------   --------------------

                                *** OPTIMIZATION RUN DONE ***



           ************************************************************
           *        Program running with 8 parallel MPI-processes     *
           *              working on a common directory               *
           ************************************************************

------------------------------------------------------------------------------
                              ORCA PROPERTY CALCULATIONS
------------------------------------------------------------------------------

GBWName                                 ... b12_hexagonal_prism_m3_spinopt.gbw
Number of atoms                         ...     12
Number of basis functions               ...    228
Max core memory                         ...   1500 MB

Electric properties:
Dipole moment                           ... YES
Quadrupole moment                       ...  NO
Static polarizability (Dipole/Dipole)   ...  NO
Static polarizability (Dipole/Quad.)    ...  NO
Static polarizability (Quad./Quad.)     ...  NO
Static polarizability (Velocity)        ...  NO
Static hyperpolarizability              ...  NO

Atomic electric properties:
Dipole moment                           ...  NO
Quadrupole moment                       ...  NO
Static polarizability                   ...  NO

Choice of electric origin               ... Center of mass
Position of electric origin             ...     0.000000     0.000000    -0.000000

General magnetic properties:
Magnetizability                         ...  NO

EPR properties:
g-Tensor (aka g-matrix)                 ...  NO
Zero-Field splitting spin-orbit         ...  NO
Zero-field splitting spin-spin          ...  NO
Hyperfine couplings                     ...  NO (   0 nuclei)
Quadrupole couplings                    ...  NO (   0 nuclei)
Contact density                         ...  NO (   0 nuclei)

NMR properties:
Chemical shifts                         ...  NO (   0 nuclei)
Spin-rotation constants                 ...  NO (   0 nuclei)
Spin-spin couplings                     ...  NO (   0 nuclei,    0 pairs)

Choice of magnetic origin               ... GIAO
Position of magnetic origin             ...     0.000000     0.000000     0.000000

Properties with geometric perturbations:
SCF Hessian                             ...  NO
IR spectrum                             ...  NO
VCD spectrum                            ...  NO
X-ray spectroscopy properties:
SCF XES/XAS/RIXS spectra                ...  NO

SCF SOC stabilization energy            ...  NO
Diagonal Born-Oppenheimer correction    ...  NO

-------------
DIPOLE MOMENT
-------------

Method             : SCF
Type of density    : Electron Density
Multiplicity       :   3
Irrep              :   0
Energy             :  -297.7845298582272449 Eh
Basis              : AO
                                X                 Y                 Z
Electronic contribution:     -0.400858721       0.001258676       0.000099708
Nuclear contribution   :      0.000000000       0.000000000      -0.000000000
                        -----------------------------------------
Total Dipole Moment    :     -0.400858721       0.001258676       0.000099708
                        -----------------------------------------
Magnitude (a.u.)       :      0.400860709
Magnitude (Debye)      :      1.018906949



--------------------
Rotational spectrum 
--------------------
 
Rotational constants in cm-1:             0.096836             0.053855             0.052056 
Rotational constants in MHz :          2903.075098          1614.539176          1560.603430 

Dipole components along the rotational axes: 
x,y,z [a.u.] :    -0.400861    -0.000000    -0.000040 
x,y,z [Debye]:    -1.018907    -0.000000    -0.000102 

 

Dipole moment calculation done in   0.0 sec 

Maximum memory used throughout the entire PROP-calculation: 10.3 MB
Converting b12_hexagonal_prism_m3_spinopt.gbw to JSON (see b12_hexagonal_prism_m3_spinopt.2jsonout) ... done

--------------------------------
SUGGESTED CITATIONS FOR THIS RUN
--------------------------------

Below you find a list of papers that are relevant to this ORCA run
We neither can nor want to force you to cite these papers, but we appreciate if you do
You receive ORCA, which is the product of decades of hard work by many enthusiastic individuals, for free
The only thing we kindly ask in return is that you cite our papers,
We deeply appreciate it, if you show your appreciation for ORCA by not just citing the generic ORCA reference.

Please note that relegating all ORCA citations to the supporting information does *not* help us.
SI sections are not indexed - citations you put there will not count into any citation statistics
But we need these citations in order to attract the funding resources that allow us to do what we are doing

Therefore, if you are a happy ORCA user, please consider citing a few of the papers listed below in the main body of your paper

In addition to the list printed below, the program has created the file b12_hexagonal_prism_m3_spinopt.bibtex that contains the list in bibtex format
You can import this file easily into all common literature databanks and citation aid programs

It goes without saying that in many instances, there are alternative algorithms to achieve similar
results as the ones you have gotten from ORCA. It is, of course, also the case that in some instances
ORCA just re-implements algorithms worked out by others. We are fully aware of that and we are also
fully appreciative of our colleagues work. Hence this citation list should not be read as indicating
that the listed papers, which are focused on our own work, are the only ones worth citing. It simply
meant to make it easier for users to cite ORCA specific papers. It is not a substitute for doing your
own literature research and citing the relevant literature in a scientifically appropriate manner.

List of essential papers. We consider these as the minimum necessary citations

  1. Grimme, S.; Hansen, A.; Ehlert, S.; Mewes, J.
     r2SCAN-3c: A 'Swiss army knife' composite electronic-structure method
     J. Chem. Phys. 2021 154 , 064103
     doi.org/10.1063/5.0040021
  2. Neese, F.
     Software update: the ORCA program system, version 6.0
     WIRES Comput. Molec. Sci. 2025 15(1), e70019
     doi.org/10.1002/wcms.70019

List of papers to cite with high priority. The work reported in these papers was absolutely
necessary for this run to complete.
Our perspective: the developers of density functionals and basis sets usually get cited in chemistry papers
Good! But without the algorithms to do something with them, the functionals or basis sets would not do anything.
Hence, in our opinion, the algorithm design and method developments papers are equally worthy of getting cited

  1. Neese, F.
     An improvement of the resolution of the identity approximation for the formation of the Coulomb matrix
     J. Comp. Chem. 2003 24(14), 1740-1747
     doi.org/10.1002/jcc.10318
  2. Caldeweyher, E.; Bannwarth, C.; Grimme, S.
     Extension of the D3 dispersion coefficient model
     J. Chem. Phys. 2017 147 , 034112
     doi.org/10.1063/1.4993215
  3. Lehtola, S.; Steigemann, C.; Oliveira, M.; Marques, M.
     Recent developments in Libxc - A comprehensive library of functionals for density functional theory
     Software X 2018 7 , 
     doi.org/10.1016/j.softx.2017.11.002
  4. Caldeweyher, E.; Ehlert, S.; Hansen, A.; Neugebauer, H.; Spicher, S.; Bannwarth, C.; Grimme, S.
     A generally applicable atomic-charge dependent London dispersion correction
     J. Chem. Phys. 2019 150 , 154122
     doi.org/10.1063/1.5090222
  5. Neese, F.
     The SHARK Integral Generation and Digestion System
     J. Comp. Chem. 2022 44(3), 381
     doi.org/10.1002/jcc.26942

List of suggested additional citations. These are papers that are important in the 'surrounding' of 
of this run, or papers that preceded the highly important papers. If you like your results we are grateful for a citation.

  1. Neese, F.
     The ORCA program system
     WIRES Comput. Molec. Sci. 2012 2(1), 73-78
     doi.org/10.1002/wcms.81
  2. Neese, F.
     Software update: the ORCA program system, version 4.0
     WIRES Comput. Molec. Sci. 2018 8(1), 1-6
     doi.org/10.1002/wcms.1327
  3. Neese, F.; Wennmohs, F.; Becker, U.; Riplinger, C.
     The ORCA quantum chemistry program package
     J. Chem. Phys. 2020 152(22), 224108
     doi.org/10.1063/5.0004608
  4. Neese, F.
     Software update: The ORCA program system—Version 5.0
     WIRES Comput. Molec. Sci. 2022 12(1), e1606
     doi.org/10.1002/wcms.1606

List of optional additional citations

  1. Neese, F.
     Approximate second-order SCF convergence for spin unrestricted wavefunctions
     Chem. Phys. Lett. 2000 325(1-3), 93-98
     doi.org/10.1016/s0009-2614(00)00662-x

Timings for individual modules:

Sum of individual times          ...      187.708 sec (=   3.128 min)
Startup calculation              ...       11.636 sec (=   0.194 min)   6.2 %
SCF iterations                   ...      142.683 sec (=   2.378 min)  76.0 %
Property calculations            ...        0.144 sec (=   0.002 min)   0.1 %
SCF Gradient evaluation          ...       32.716 sec (=   0.545 min)  17.4 %
Geometry relaxation              ...        0.529 sec (=   0.009 min)   0.3 %
                             ****ORCA TERMINATED NORMALLY****
TOTAL RUN TIME: 0 days 0 hours 3 minutes 14 seconds 265 msec
