
                                 *****************
                                 * O   R   C   A *
                                 *****************

                                            #,                                       
                                            ###                                      
                                            ####                                     
                                            #####                                    
                                            ######                                   
                                           ########,                                 
                                     ,,################,,,,,                         
                               ,,#################################,,                 
                          ,,##########################################,,             
                       ,#########################################, ''#####,          
                    ,#############################################,,   '####,        
                  ,##################################################,,,,####,       
                ,###########''''           ''''###############################       
              ,#####''   ,,,,##########,,,,          '''####'''          '####       
            ,##' ,,,,###########################,,,                        '##       
           ' ,,###''''                  '''############,,,                           
         ,,##''                                '''############,,,,        ,,,,,,###''
      ,#''                                            '''#######################'''  
     '                                                          ''''####''''         
             ,#######,   #######,   ,#######,      ##                                
            ,#'     '#,  ##    ##  ,#'     '#,    #''#        ,####,    ,#,          
            ##       ##  ##   ,#'  ##            #'  '#       #'       ,# #          
            ##       ##  #######   ##           ,######,      #####,      #          
            '#,     ,#'  ##    ##  '#,     ,#' ,#      #,     #,   #      #          
             '#######'   ##     ##  '#######'  #'      '#     '####' #    #          



                #########################################################
                #                        -***-                          #
                #          Department of theory and spectroscopy        #
                #                                                       #
                #                      Frank Neese                      #
                #                                                       #
                #     Directorship, Architecture, Infrastructure        #
                #                    SHARK, DRIVERS                     #
                #        Core code/Algorithms in most modules           #
                #                                                       #
                #        Max Planck Institute fuer Kohlenforschung      #
                #                Kaiser Wilhelm Platz 1                 #
                #                 D-45470 Muelheim/Ruhr                 #
                #                      Germany                          #
                #                                                       #
                #                  All rights reserved                  #
                #                        -***-                          #
                #########################################################


                         Program Version 6.1.1  -  RELEASE   -


 With contributions from (in alphabetic order):
[Max-Planck-Institut fuer Kohlenforschung]                               
  Daniel Aravena         : Magnetic Suceptibility                        
  Michael Atanasov       : Ab Initio Ligand Field Theory (pilot matlab implementation)
  Alexander A. Auer      : GIAO ZORA, VPT2 properties, NMR spectrum      
  Ute Becker             : All parallelization in ORCA, NUMFREQ, NUMCALC 
  Giovanni Bistoni       : ED, misc. LED, open-shell LED, HFLD           
  Dmytro Bykov           : pre 5.0 version of the SCF Hessian            
  Marcos Casanova-Páez   : Triplet and SCS-CIS(D). UHF-(DLPNO)-IP/EA/STEOM-CCSD. UHF-CVS-IP/STEOM-CCSD   
  Vijay G. Chilkuri      : MRCI spin determinant printing, contributions to CSF-ICE 
  Pauline Colinet        : FMM embedding                                 
  Dipayan Datta          : RHF DLPNO-CCSD density                        
  Achintya Kumar Dutta   : EOM-CC, STEOM-CC                              
  Nicolas Foglia         : Exact transition moments, OPA infrastructure, MCD improvements    
  Dmitry Ganyushin       : Spin-Orbit,Spin-Spin,Magnetic field MRCI      
  Miquel Garcia-Rates    : C-PCM and meta-GGA Hessian, CCSD/C-PCM, Gaussian charge scheme 
  Tiago L. C. Gouveia    : GS-ROHF, GS-ROCIS                             
  Yang Guo               : DLPNO-NEVPT2, F12-NEVPT2, CIM, IAO-localization        
  Andreas Hansen         : Spin unrestricted coupled pair/coupled cluster methods 
  Ingolf Harden          : AUTO-CI MPn and infrastructure                
  Benjamin Helmich-Paris : MC-RPA, TRAH-(SCF,CASSCF), AVAS, COSX integrals, SCF dyn. polar., MC-PDFT, srDFT 
  Lee Huntington         : MR-EOM, pCC                                   
  Robert Izsak           : Overlap fitted RIJCOSX, COSX-SCS-MP3, EOM     
  Riya Kayal             : Wick's Theorem for AUTO-CI, AUTO-CI UHF-CCSDT 
  Emily Kempfer          : AUTO-CI RHF CISDT and CCSDT, approximate NEVPT4
  Christian Kollmar      : KDIIS, OOCD, Brueckner-CCSD(T), CCSD density, CASPT2, CASPT2-K, improved NEVPT2 
  Axel Koslowski         : Symmetry handling                             
  Simone Kossmann        : meta-GGA functionals, TD-DFT gradient, OOMP2, (MP2 Hessian; deprecated post 5.0) 
  Lucas Lang             : DCDCAS, Hyperfine gauge corrections, ICE-SOC+SSC
  Marvin Lechner         : AUTO-CI (C++ implementation), FIC-MRCC        
  Spencer Leger          : CASSCF response                               
  Dagmar Lenk            : GEPOL surface, SMD, ORCA-2-JSON               
  Dimitrios Liakos       : Extrapolation schemes; Compound Job, Property file
  Dimitrios Manganas     : Further ROCIS development; embedding schemes. LFT, Crystal Embedding 
  Dimitrios Pantazis     : SARC Basis sets                               
  Anastasios Papadopoulos: AUTO-CI, single reference methods and gradients 
  Taras Petrenko         : pre 6.0 DFT Hessian and TD-DFT gradient,  ECA, NRVS 
  Petra Pikulova         : Analytic Raman intensities                    
  Peter Pinski           : DLPNO-MP2, DLPNO-MP2 Gradient                 
  Shashank Vittal Rao    : ES-AILFT, MagRelax                            
  Christoph Reimann      : Effective Core Potentials                     
  Marius Retegan         : Local ZFS, SOC                                
  Christoph Riplinger    : Optimizer, TS searches, QM/MM, DLPNO-CCSD(T), (RO)-DLPNO pert. Triples 
  Michael Roemelt        : Original ROCIS implementation, recursive CI coupling coefficients
  Masaaki Saitow         : Open-shell DLPNO-CCSD energy and density      
  Barbara Sandhoefer     : DKH picture change effects                    
  Yorick L. A. Schmerwitz: GMF and freeze-and-release deltaSCF, NEB S-IDPP initial path                    
  Kantharuban Sivalingam : CASSCF convergence/infrastructure, NEVPT2, NEVPT3, NEVPT4(SD), FIC-MRCI and CEPA variants
  Bernardo de Souza      : ESD, SOC TD-DFT                               
  Georgi L. Stoychev     : AutoAux, RI-MP2 NMR, DLPNO-MP2 response, X2C  
  Van Anh Tran           : RI-MP2 g-tensors                              
  Willem Van den Heuvel  : Paramagnetic NMR                              
  Zikuan Wang            : NOTCH, Electric field optimization            
  Frank Wennmohs         : Technical directorship and infrastructure     
  Hang Xu                : AUTO-CI-Response properties                   
                                                                         
[FACCTs GmbH]                                                            
  Markus Bursch, Nicolas Foglia, Miquel Garcia-Rates, Ingolf Harden, Hagen Neugebauer, Anastasios Papadopoulos, 
  Christoph Riplinger, Bernardo de Souza, Georgi L. Stoychev                                                    
                                                                 
  APM, various basis sets, CI-OPT, improved COSX, DLPNO-Multilevel,           
  DOCKER, DRACO, updates on ESD, Fragmentator, GOAT, IRC, LR-CPCM, L-BFGS, MBIS, meta-GGA TD-DFT gradient, ML-optimized integration grids, 
  MM, NACMEs, nearIR, NEB, NEB-TS, NL-DFT gradient (VV10), 2- and 3-layer-ONIOM, interface openCOSMO-RS, QMMM,   
  Crystal-QMMM, RESP, rigid body optimization, SF, symmetry and pop. for TD-DFT, various functionals, SOLVATOR                                   
                                                                         
[Other institutions]                                                     
  V. Asgeirsson          : NEB                                           
  Christoph Bannwarth    : sTDA-DFT, sTD-DFT, PBEh-3c, B97-3c, D3        
  Giovanni Bistoni       : ETS/NOCV, ADLD/ADEX, COVALED                  
  Martin Brehm           : Molecular dynamics                            
  Ronald Cardenas        : ETS/NOCV                                      
  Martina Colucci        : COVALED                                       
  Sebastian Ehlert       : rSCAN, r2SCAN, r2SCAN-3c, D4, dhf basis sets  
  Marvin Friede          : D4 for Fr, Ra, Ac-Lr                          
  Lars Goerigk           : TD-DFT with DH, B97 family of functionals     
  Stefan Grimme          : VdW corrections, initial TS optimization, DFT functionals, gCP, sTDA/sTD-DF 
  Waldemar Hujo          : DFT-NL                                        
  H. Jonsson             : NEB                                           
  Holger Kruse           : gCP                                           
  Marcel Mueller         : wB97X-3c, vDZP basis set                      
  Hagen Neugebauer       : wr2SCAN, Native XTB                           
  Gianluca Regni         : ADLD/ADEX                                     
  Tobias Risthaus        : pre 6.0 range-separated hybrid DFT and stability analysis
  Lukas Wittmann         : regularized MP2, r2SCAN double-hybrids, wr2SCAN        
                                                                         
We gratefully acknowledge several colleagues who have allowed us to      
interface, adapt or use parts of their codes:                            
  Ed Valeev, F. Pavosevic, A. Kumar             : LibInt (2-el integral package), F12 methods 
  Garnet Chan, S. Sharma, J. Yang, R. Olivares  : DMRG                   
  Ulf Ekstrom                                   : XCFun DFT Library      
  Mihaly Kallay                                 : mrcc  (arbitrary order and MRCC methods)
  Frank Weinhold                                : gennbo (NPA and NBO analysis)           
  Simon Mueller                                 : openCOSMO-RS                            
  Christopher J. Cramer and Donald G. Truhlar   : smd solvation model                     
  S Lehtola, MJT Oliveira, MAL Marques          : LibXC Library                           
  Liviu Ungur et al                             : ANISO software                          


 Your calculation uses the libint2 library for the computation of 2-el integrals
 For citations please refer to: http://libint.valeyev.net

 Your ORCA version has been built with support for libXC version: 7.0.0
 For citations please refer to: https://libxc.gitlab.io

 This ORCA versions uses:
   CBLAS   interface :  Fast vector & matrix operations
   LAPACKE interface :  Fast linear algebra routines
   Shared memory     :  Shared parallel matrices


  ***********************************
  * Starting time: Mon Mar 30 21:25:56 2026
  * Host name:     DESKTOP-E59RH2R
  * Process ID:    95244
  * Working dir.:  C:\Users\gnome\Desktop\Vitya_Diplom\Vitya_DiplomB12\07_dlpno_check\b12_hexagonal_prism\mult_1
  ***********************************

NOTE: MaxCore=2500 MB was set to SCF,MP2,MDCI,CIPSI,MRCI,RASCI and CIS
      => If you want to overwrite this, your respective input block should be placed after the MaxCore statement
================================================================================

----- Orbital basis set information -----
Your calculation utilizes the basis: def2-TZVPP
   F. Weigend and R. Ahlrichs, Phys. Chem. Chem. Phys. 7, 3297 (2005).

----- AuxJ basis set information -----
Your calculation utilizes the auxiliary basis: def2/J
   H-Rn: F. Weigend, Phys. Chem. Chem. Phys. 8, 1057 (2006).
   Fr-Lr: K. Eichkorn, F. Weigend, O. Treutler, R. Ahlrichs; Theor. Chem. Acc. 97, 119 (1997).

----- AuxC basis set information -----
Your calculation utilizes the auxiliary basis: def2-TZVPP/C
  H-La, Hf-Rn : A. Hellweg, C. Hattig, S. Hofener and W. Klopper, Theor. Chem. Acc. 117, 587 (2007).
        Ce-Lu : J. Chmela and M. E. Harding, Mol. Phys. (2018).

================================================================================
                                        WARNINGS
                       Please study these warnings very carefully!
================================================================================

WARNING: Old DensityContainer found on disk!
         Will remove this file - 
         If you want to keep old densities, please start your calculation with a different basename. 


WARNING: Post HF methods need fully converged wavefunctions
  ===> : Setting SCFConvForced true
         You can overwrite this default with %scf ConvForced false 


WARNING: MDCI localization with Augmented Hessian Foster-Boys
  ===> : Switching off randomization!

================================================================================
                                       INPUT FILE
================================================================================
NAME = b12_hexagonal_prism_m1_dlpno.inp
|  1> !dlpno-ccsd(t)
|  2> !def2-tzvpp
|  3> !def2/j
|  4> !def2-tzvpp/c
|  5> !tightpno
|  6> !sp
|  7> !tightscf
|  8> 
|  9> %output
| 10>     jsonpropfile true
| 11>     jsongbwfile true
| 12> end
| 13> 
| 14> %mdci
| 15>     printlevel 3
| 16>     maxiter 200
| 17> end
| 18> 
| 19> %maxcore 2500
| 20> %pal
| 21>   nprocs 8
| 22> end
| 23> 
| 24> * xyz 0 1
| 25> B             1.9301996024580399             0.5863756100549200             0.5914869941246500
| 26> B             0.5793009173024000             1.0891256384135299             1.0906522757569499
| 27> B            -0.9802515399658500             0.7802218754564600             0.7776110567997300
| 28> B            -1.9296762559171501            -0.5862157376614801             0.5925268712397200
| 29> B            -0.5785159118419100            -1.0889884976686901             1.0913572253643000
| 30> B             0.9807590209072700            -0.7801643868435000             0.7767253987831100
| 31> B             1.9258864733159200            -0.5983167664020400            -0.5926512068307001
| 32> B             0.9848940629915101             0.7739519743266600            -0.7770073049671500
| 33> B            -0.5727248782637900             1.0921657197385599            -1.0913361649405000
| 34> B            -1.9264768994946000             0.5984055665238700            -0.5914298300749600
| 35> B            -0.9853007682228200            -0.7741334981562100            -0.7763883161752800
| 36> B             0.5719061767309900            -1.0924274977820601            -1.0915469990798801
| 37> *
| 38> 
| 39>                          ****END OF INPUT****
================================================================================

                       ****************************
                       * Single Point Calculation *
                       ****************************

---------------------------------
CARTESIAN COORDINATES (ANGSTROEM)
---------------------------------
  B      1.930200    0.586376    0.591487
  B      0.579301    1.089126    1.090652
  B     -0.980252    0.780222    0.777611
  B     -1.929676   -0.586216    0.592527
  B     -0.578516   -1.088988    1.091357
  B      0.980759   -0.780164    0.776725
  B      1.925886   -0.598317   -0.592651
  B      0.984894    0.773952   -0.777007
  B     -0.572725    1.092166   -1.091336
  B     -1.926477    0.598406   -0.591430
  B     -0.985301   -0.774133   -0.776388
  B      0.571906   -1.092427   -1.091547

----------------------------
CARTESIAN COORDINATES (A.U.)
----------------------------
  NO LB      ZA    FRAG     MASS         X           Y           Z
   0 B     5.0000    0    10.810    3.647549    1.108089    1.117748
   1 B     5.0000    0    10.810    1.094720    2.058149    2.061034
   2 B     5.0000    0    10.810   -1.852407    1.474406    1.469472
   3 B     5.0000    0    10.810   -3.646560   -1.107787    1.119714
   4 B     5.0000    0    10.810   -1.093237   -2.057890    2.062366
   5 B     5.0000    0    10.810    1.853366   -1.474297    1.467798
   6 B     5.0000    0    10.810    3.639398   -1.130655   -1.119948
   7 B     5.0000    0    10.810    1.861180    1.462557   -1.468331
   8 B     5.0000    0    10.810   -1.082293    2.063894   -2.062326
   9 B     5.0000    0    10.810   -3.640514    1.130823   -1.117640
  10 B     5.0000    0    10.810   -1.861949   -1.462900   -1.467161
  11 B     5.0000    0    10.810    1.080746   -2.064389   -2.062725

--------------------------------
INTERNAL COORDINATES (ANGSTROEM)
--------------------------------
 B      0   0   0     0.000000000000     0.00000000     0.00000000
 B      1   0   0     1.525401857530     0.00000000     0.00000000
 B      2   1   0     1.620376563181   136.57785925     0.00000000
 B      3   2   1     1.674161042895   136.28379418    46.34703246
 B      4   3   2     1.525531528944    74.36911927     8.59695996
 B      5   4   3     1.620402367816   136.55076574   316.97861477
 B      6   5   4     1.673776193629   136.29685118   313.66006702
 B      1   2   3     1.673787352690    74.36258873    42.96425139
 B      8   1   2     1.620567612332   136.33775622   351.44271197
 B      9   8   1     1.525237675750   136.54813823   313.71752188
 B      4   3   2     1.673644806045    82.07196168   292.68413329
 B      7   6   5     1.525222957449    74.40372720   351.45947592

---------------------------
INTERNAL COORDINATES (A.U.)
---------------------------
 B      0   0   0     0.000000000000     0.00000000     0.00000000
 B      1   0   0     2.882591754907     0.00000000     0.00000000
 B      2   1   0     3.062067938237   136.57785925     0.00000000
 B      3   2   1     3.163705875151   136.28379418    46.34703246
 B      4   3   2     2.882836798367    74.36911927     8.59695996
 B      5   4   3     3.062116701930   136.55076574   316.97861477
 B      6   5   4     3.162978615436   136.29685118   313.66006702
 B      1   2   3     3.162999703006    74.36258873    42.96425139
 B      8   1   2     3.062428968810   136.33775622   351.44271197
 B      9   8   1     2.882281496306   136.54813823   313.71752188
 B      4   3   2     3.162730328886    82.07196168   292.68413329
 B      7   6   5     2.882253682748    74.40372720   351.45947592

---------------------
BASIS SET INFORMATION
---------------------
There are 1 groups of distinct atoms

 Group   1 Type B   : 11s6p2d1f contracted to 5s3p2d1f pattern {62111/411/11/1}

Atom   0B    basis set group =>   1
Atom   1B    basis set group =>   1
Atom   2B    basis set group =>   1
Atom   3B    basis set group =>   1
Atom   4B    basis set group =>   1
Atom   5B    basis set group =>   1
Atom   6B    basis set group =>   1
Atom   7B    basis set group =>   1
Atom   8B    basis set group =>   1
Atom   9B    basis set group =>   1
Atom  10B    basis set group =>   1
Atom  11B    basis set group =>   1
---------------------------------
AUXILIARY/J BASIS SET INFORMATION
---------------------------------
There are 1 groups of distinct atoms

 Group   1 Type B   : 12s5p4d2f1g contracted to 6s4p3d1f1g pattern {711111/2111/211/2/1}

Atom   0B    basis set group =>   1
Atom   1B    basis set group =>   1
Atom   2B    basis set group =>   1
Atom   3B    basis set group =>   1
Atom   4B    basis set group =>   1
Atom   5B    basis set group =>   1
Atom   6B    basis set group =>   1
Atom   7B    basis set group =>   1
Atom   8B    basis set group =>   1
Atom   9B    basis set group =>   1
Atom  10B    basis set group =>   1
Atom  11B    basis set group =>   1
---------------------------------
AUXILIARY/C BASIS SET INFORMATION
---------------------------------
There are 1 groups of distinct atoms

 Group   1 Type B   : 8s6p5d3f1g contracted to 8s6p4d3f1g pattern {11111111/111111/2111/111/1}

Atom   0B    basis set group =>   1
Atom   1B    basis set group =>   1
Atom   2B    basis set group =>   1
Atom   3B    basis set group =>   1
Atom   4B    basis set group =>   1
Atom   5B    basis set group =>   1
Atom   6B    basis set group =>   1
Atom   7B    basis set group =>   1
Atom   8B    basis set group =>   1
Atom   9B    basis set group =>   1
Atom  10B    basis set group =>   1
Atom  11B    basis set group =>   1

Checking for AutoStart:
The File: b12_hexagonal_prism_m1_dlpno.gbw exists
Trying to determine its content:
     ... Fine, the file contains calculation information
     ... Fine, the calculation information was read
     ... Fine, the file contains a basis set
     ... Fine, the basis set was read
     ... Fine, the file contains a geometry
     ... Fine, the geometry was read
     ... Fine, the file contains a set of orbitals
     ... Fine, the orbitals can be read
     => possible old guess file was deleted
     => GBW file was renamed to GES file
     => GES file is set as startup file
     => Guess is set to MORead
     ... now leaving AutoStart



           ************************************************************
           *        Program running with 8 parallel MPI-processes     *
           *              working on a common directory               *
           ************************************************************
------------------------------------------------------------------------------
                             ORCA STARTUP CALCULATIONS
------------------------------------------------------------------------------
------------------------------------------------------------------------------
                   ___                                                        
                  /   \      - P O W E R E D   B Y -                         
                 /     \                                                     
                 |  |  |   _    _      __       _____    __    __             
                 |  |  |  | |  | |    /  \     |  _  \  |  |  /  |          
                  \  \/   | |  | |   /    \    | | | |  |  | /  /          
                 / \  \   | |__| |  /  /\  \   | |_| |  |  |/  /          
                |  |  |   |  __  | /  /__\  \  |    /   |      \           
                |  |  |   | |  | | |   __   |  |    \   |  |\   \          
                \     /   | |  | | |  |  |  |  | |\  \  |  | \   \       
                 \___/    |_|  |_| |__|  |__|  |_| \__\ |__|  \__/        
                                                                              
                      - O R C A' S   B I G   F R I E N D -                    
                                      &                                       
                       - I N T E G R A L  F E E D E R -                       
                                                                              
 v1 FN, 2020, v2 2021, v3 2022-2024                                           
------------------------------------------------------------------------------


----------------------
SHARK INTEGRAL PACKAGE
----------------------

Number of atoms                             ...     12
Number of basis functions                   ...    372
Number of shells                            ...    132
Maximum angular momentum                    ...      3
Integral batch strategy                     ... SHARK/LIBINT Hybrid
RI-J (if used) integral strategy            ... SPLIT-RIJ (Revised 2003 algorithm where possible)
Printlevel                                  ...      1
Contraction scheme used                     ... SEGMENTED contraction
Prescreening option                         ... SCHWARTZ
   Thresh                                   ... 2.500e-11
   Tcut                                     ... 2.500e-12
   Tpresel                                  ... 2.500e-12 
Coulomb Range Separation                    ... NOT USED
Exchange Range Separation                   ... NOT USED
Multipole approximations                    ... NOT USED
Finite Nucleus Model                        ... NOT USED
CABS basis                                  ... NOT available
Auxiliary Coulomb fitting basis             ... AVAILABLE
   # of basis functions in Aux-J            ...    588
   # of shells in Aux-J                     ...    180
   Maximum angular momentum in Aux-J        ...      4
Auxiliary J/K fitting basis                 ... NOT available
Auxiliary Correlation fitting basis         ... AVAILABLE
   # of basis functions in Aux-C            ...    912
   # of shells in Aux-C                     ...    264
   Maximum angular momentum in Aux-C        ...      4
Auxiliary 'external' fitting basis          ... NOT available

Checking pre-screening integrals            ... done (  0.0 sec) Dimension = 132
   => SHARK Basis and OBASIS are compatible. Storing Pre-screening
Shell pair information
Shell pair cut-off parameter TPreSel        ...   2.5e-12
Total number of shell pairs                 ...      8778
Shell pairs after pre-screening             ...      8594
Total number of primitive shell pairs       ...     29184
Primitive shell pairs kept                  ...     22484
          la=0 lb=0:   1662 shell pairs
          la=1 lb=0:   2152 shell pairs
          la=1 lb=1:    666 shell pairs
          la=2 lb=0:   1432 shell pairs
          la=2 lb=1:    864 shell pairs
          la=2 lb=2:    300 shell pairs
          la=3 lb=0:    720 shell pairs
          la=3 lb=1:    432 shell pairs
          la=3 lb=2:    288 shell pairs
          la=3 lb=3:     78 shell pairs

Checking whether 4 symmetric matrices of dimension 372 fit in memory
:Max Core in MB      =   2500.00
 MB in use           =     12.78
 MB left             =   2487.22
 MB needed           =      2.12
 Data fit in memory  = YES
Calculating RI/J V-Matrix + Cholesky decomp.... done (  0.0 sec)
Calculating RI/C V-Matrix + Cholesky decomp.... done (  0.0 sec)
Calculating Nuclear repulsion               ... done (  0.0 sec) ENN=    381.731248161400 Eh

Diagonalization of the overlap matrix:
Smallest eigenvalue                        ... 1.211e-06
Time for diagonalization                   ...    0.013 sec
Threshold for overlap eigenvalues          ... 1.000e-07
Number of eigenvalues below threshold      ... 0
Time for construction of square roots      ...    0.006 sec
Total time needed                          ...    0.021 sec

-------------------
DFT GRID GENERATION
-------------------

General Integration Accuracy     IntAcc      ... 4.388
Radial Grid Type                 RadialGrid  ... OptM3 with GC (2021)
Angular Grid (max. ang.)         AngularGrid ... 4 (Lebedev-302)
Angular grid pruning method      GridPruning ... 4 (adaptive)
Weight generation scheme         WeightScheme... mBecke (2022)
Basis function cutoff            BFCut       ... 1.0000e-11
Integration weight cutoff        WCut        ... 1.0000e-14
Partially contracted basis set               ... off
Rotationally invariant grid construction     ... off
Angular grids for H and He will be reduced by one unit

Total number of grid points                  ...    69970
Total number of batches                      ...     1100
Average number of points per batch           ...       63
Average number of grid points per atom       ...     5831
Grids setup in   0.5 sec
Initializing property integral containers    ... done (  0.1 sec)

SHARK setup successfully completed in   0.7 seconds

Maximum memory used throughout the entire STARTUP-calculation: 28.0 MB


           ************************************************************
           *        Program running with 8 parallel MPI-processes     *
           *              working on a common directory               *
           ************************************************************
-------------------------------------------------------------------------------
                                 ORCA GUESS
                   Start orbitals & Density for SCF / CASSCF
-------------------------------------------------------------------------------

------------
SCF SETTINGS
------------
Hamiltonian:
 Ab initio Hamiltonian  Method          .... Hartree-Fock(GTOs)


General Settings:
 Integral files         IntName         .... b12_hexagonal_prism_m1_dlpno
 Hartree-Fock type      HFTyp           .... RHF
 Total Charge           Charge          ....    0
 Multiplicity           Mult            ....    1
 Number of Electrons    NEL             ....   60
 Basis Dimension        Dim             ....  372
 Nuclear Repulsion      ENuc            ....    381.7312481614 Eh

Convergence Acceleration:
 AO-DIIS                CNVDIIS         .... on
   Start iteration      DIISMaxIt       ....    12
   Startup error        DIISStart       ....  0.200000
   # of expansion vecs  DIISMaxEq       ....     5
   Bias factor          DIISBfac        ....   1.050
   Max. coefficient     DIISMaxC        ....  10.000
 MO-DIIS                CNVKDIIS        .... off
 Trust-Rad. Augm. Hess. CNVTRAH         .... auto
   Auto Start mean grad. ratio tolernc. ....  1.125000
   Auto Start start iteration           ....     1
   Auto Start num. interpolation iter.  ....    10
   Max. Number of Micro iterations      ....    24
   Max. Number of Macro iterations      .... Maxiter - #DIIS iter
   Number of Davidson start vectors     ....     2
   Converg. threshold    (grad. norm)   ....   1.000e-05
   Grad. Scal. Fac. for Micro threshold ....   0.100
   Minimum threshold for Micro iter.    ....   1.000e-02
   NR start threshold (gradient norm)   ....   1.000e-04
   Initial trust radius                 ....   0.400
   Minimum AH scaling param. (alpha)    ....   1.000
   Maximum AH scaling param. (alpha)    .... 1000.000
   Quad. conv. algorithm                .... NR
   White noise on init. David. guess    .... on
   Maximum white noise                  ....   0.010
   Pseudo random numbers                .... off
   Inactive MOs                         .... canonical
   Orbital update algorithm             .... Taylor
   Preconditioner                       .... Diag
   Full preconditioner red. dimension   ....   250
 SOSCF                 CNVSOSCF           .... on
   Start iteration     SOSCFMaxIt         ....   150
   Startup grad/error  SOSCFStart         ....  0.003300
   Hessian update      SOSCFHessUp        .... L-BFGS
   Autom. constraints  SOSCFAutoConstrain .... off
 Level Shifting         CNVShift        .... on
   Level shift para.    LevelShift      ....    0.2500
   Turn off err/grad.   ShiftErr        ....    0.0010
 Zerner damping         CNVZerner       .... off
 Static damping         CNVDamp         .... on
   Fraction old density DampFac         ....    0.7000
   Max. Damping (<1)    DampMax         ....    0.9800
   Min. Damping (>=0)   DampMin         ....    0.0000
   Turn off err/grad.   DampErr         ....    0.1000

SCF Procedure:
 Maximum # iterations   MaxIter         ....   125
 SCF integral mode      SCFMode         .... Direct
   Integral package                     .... SHARK and LIBINT hybrid scheme
 Reset frequency        DirectResetFreq ....    20
 Integral Threshold     Thresh          ....  2.500e-11 Eh
 Primitive CutOff       TCut            ....  2.500e-12 Eh

Convergence Tolerance:
 Convergence Check Mode ConvCheckMode   .... Total+1el-Energy
 Convergence forced     ConvForced      .... 1
 Energy Change          TolE            ....  1.000e-08 Eh
 1-El. energy change                    ....  1.000e-05 Eh
 Orbital Gradient       TolG            ....  1.000e-05
 Orbital Rotation angle TolX            ....  1.000e-05
 DIIS Error             TolErr          ....  5.000e-07

---------------------
INITIAL GUESS: MOREAD
---------------------
Guess MOs are being read from file: b12_hexagonal_prism_m1_dlpno.ges
Input Geometry matches current geometry (good)
Input basis set matches current basis set (good)
Occupation numbers will be reassigned to an Aufbau configuration
MOs were renormalized
MOs were reorthogonalized (Cholesky)
                      ------------------
                      INITIAL GUESS DONE (   0.1 sec)
                      ------------------
             **** ENERGY FILE WAS UPDATED (b12_hexagonal_prism_m1_dlpno.en.tmp) ****
Finished Guess after   0.2 sec
Maximum memory used throughout the entire GUESS-calculation: 21.7 MB


           ************************************************************
           *        Program running with 8 parallel MPI-processes     *
           *              working on a common directory               *
           ************************************************************

-------------------------------------------------------------------------------------------
                                      ORCA LEAN-SCF
                              memory conserving SCF solver
-------------------------------------------------------------------------------------------

----------------------------------------D-I-I-S--------------------------------------------
Iteration    Energy (Eh)           Delta-E    RMSDP     MaxDP     DIISErr   Damp  Time(sec)
-------------------------------------------------------------------------------------------
               ***  Starting incremental Fock matrix formation  ***
                              *** Initializing SOSCF ***
---------------------------------------S-O-S-C-F--------------------------------------
Iteration    Energy (Eh)           Delta-E    RMSDP     MaxDP     MaxGrad    Time(sec)
--------------------------------------------------------------------------------------
    1    -295.8322500916539184     0.00e+00  1.47e-06  1.31e-05  1.92e-07    10.8
               *** Restarting incremental Fock matrix formation ***
    2    -295.8322500916643776    -1.05e-11  2.95e-07  3.02e-06  3.82e-07    11.2
                  *** Gradient check signals convergence ***

               *****************************************************
               *                     SUCCESS                       *
               *           SCF CONVERGED AFTER   2 CYCLES          *
               *****************************************************

             **** ENERGY FILE WAS UPDATED (b12_hexagonal_prism_m1_dlpno.en.tmp) ****

----------------
TOTAL SCF ENERGY
----------------

Total Energy       :       -295.83225009047885 Eh           -8050.00478 eV

Components:
Nuclear Repulsion  :        381.73124816139978 Eh           10387.43535 eV
Electronic Energy  :       -677.56349825187863 Eh          -18437.44013 eV
One Electron Energy:      -1151.10170539523619 Eh          -31323.06984 eV
Two Electron Energy:        473.53820714335757 Eh           12885.62971 eV

Virial components:
Potential Energy   :       -591.64281863828342 Eh          -16099.41957 eV
Kinetic Energy     :        295.81056854780462 Eh            8049.41479 eV
Virial Ratio       :          2.00007329536190

---------------
SCF CONVERGENCE
---------------

  Last Energy change         ...    1.0459e-11  Tolerance :   1.0000e-08
  Last MAX-Density change    ...    3.0232e-06  Tolerance :   1.0000e-07
  Last RMS-Density change    ...    2.9544e-07  Tolerance :   5.0000e-09
  Last DIIS Error            ...    4.3266e-07  Tolerance :   5.0000e-07
  Last Orbital Gradient      ...    3.8234e-07  Tolerance :   1.0000e-05
  Last Orbital Rotation      ...    9.1804e-07  Tolerance :   1.0000e-05


----------------
ORBITAL ENERGIES
----------------

  NO   OCC          E(Eh)            E(eV) 
   0   2.0000      -7.648711      -208.1320 
   1   2.0000      -7.648621      -208.1296 
   2   2.0000      -7.648560      -208.1279 
   3   2.0000      -7.648545      -208.1275 
   4   2.0000      -7.631926      -207.6753 
   5   2.0000      -7.631920      -207.6751 
   6   2.0000      -7.631902      -207.6746 
   7   2.0000      -7.631891      -207.6743 
   8   2.0000      -7.629320      -207.6044 
   9   2.0000      -7.629280      -207.6033 
  10   2.0000      -7.628566      -207.5838 
  11   2.0000      -7.628562      -207.5837 
  12   2.0000      -1.073276       -29.2053 
  13   2.0000      -0.978799       -26.6345 
  14   2.0000      -0.802543       -21.8383 
  15   2.0000      -0.802461       -21.8361 
  16   2.0000      -0.731798       -19.9132 
  17   2.0000      -0.643353       -17.5065 
  18   2.0000      -0.643315       -17.5055 
  19   2.0000      -0.529178       -14.3997 
  20   2.0000      -0.501563       -13.6482 
  21   2.0000      -0.480778       -13.0826 
  22   2.0000      -0.480725       -13.0812 
  23   2.0000      -0.480368       -13.0715 
  24   2.0000      -0.478680       -13.0256 
  25   2.0000      -0.445947       -12.1348 
  26   2.0000      -0.377854       -10.2819 
  27   2.0000      -0.337088        -9.1726 
  28   2.0000      -0.293579        -7.9887 
  29   2.0000      -0.293534        -7.9875 
  30   0.0000      -0.029478        -0.8021 
  31   0.0000       0.038561         1.0493 
  32   0.0000       0.038638         1.0514 
  33   0.0000       0.082341         2.2406 
  34   0.0000       0.087783         2.3887 
  35   0.0000       0.087902         2.3919 
  36   0.0000       0.088371         2.4047 
  37   0.0000       0.101213         2.7541 
  38   0.0000       0.103145         2.8067 
  39   0.0000       0.103173         2.8075 
  40   0.0000       0.104667         2.8481 
*Only the first 10 virtual orbitals were printed.

                    ********************************
                    * MULLIKEN POPULATION ANALYSIS *
                    ********************************

-----------------------
MULLIKEN ATOMIC CHARGES
-----------------------
   0 B :   -0.137841
   1 B :   -0.112637
   2 B :    0.250296
   3 B :   -0.137518
   4 B :   -0.112791
   5 B :    0.250412
   6 B :   -0.138086
   7 B :    0.250343
   8 B :   -0.112360
   9 B :   -0.137645
  10 B :    0.250171
  11 B :   -0.112343
Sum of atomic charges:   -0.0000000

--------------------------------
MULLIKEN REDUCED ORBITAL CHARGES
--------------------------------
  0 B s       :     2.983196  s :     2.983196
      pz      :     0.736296  p :     2.029089
      px      :     0.556124
      py      :     0.736669
      dz2     :     0.030847  d :     0.114864
      dxz     :     0.021062
      dyz     :     0.012798
      dx2y2   :     0.029160
      dxy     :     0.020996
      f0      :     0.002212  f :     0.010692
      f+1     :     0.000908
      f-1     :     0.001015
      f+2     :     0.000761
      f-2     :     0.002587
      f+3     :     0.001263
      f-3     :     0.001946

  1 B s       :     3.155718  s :     3.155718
      pz      :     0.501755  p :     1.812908
      px      :     0.809643
      py      :     0.501510
      dz2     :     0.029127  d :     0.133694
      dxz     :     0.029575
      dyz     :     0.007867
      dx2y2   :     0.037536
      dxy     :     0.029590
      f0      :     0.000919  f :     0.010317
      f+1     :     0.002751
      f-1     :     0.001206
      f+2     :     0.001214
      f-2     :     0.000880
      f+3     :     0.002420
      f-3     :     0.000927

  2 B s       :     2.639582  s :     2.639582
      pz      :     0.645169  p :     1.926721
      px      :     0.637075
      py      :     0.644477
      dz2     :     0.034738  d :     0.167087
      dxz     :     0.033288
      dyz     :     0.032106
      dx2y2   :     0.033769
      dxy     :     0.033186
      f0      :     0.003526  f :     0.016315
      f+1     :     0.001453
      f-1     :     0.002502
      f+2     :     0.002280
      f-2     :     0.001817
      f+3     :     0.001445
      f-3     :     0.003292

  3 B s       :     2.982771  s :     2.982771
      pz      :     0.736248  p :     2.029203
      px      :     0.556263
      py      :     0.736692
      dz2     :     0.030841  d :     0.114852
      dxz     :     0.021075
      dyz     :     0.012797
      dx2y2   :     0.029145
      dxy     :     0.020993
      f0      :     0.002213  f :     0.010692
      f+1     :     0.000905
      f-1     :     0.001016
      f+2     :     0.000761
      f-2     :     0.002588
      f+3     :     0.001263
      f-3     :     0.001946

  4 B s       :     3.155906  s :     3.155906
      pz      :     0.501690  p :     1.812927
      px      :     0.809583
      py      :     0.501654
      dz2     :     0.029110  d :     0.133643
      dxz     :     0.029567
      dyz     :     0.007865
      dx2y2   :     0.037516
      dxy     :     0.029585
      f0      :     0.000919  f :     0.010314
      f+1     :     0.002751
      f-1     :     0.001204
      f+2     :     0.001213
      f-2     :     0.000880
      f+3     :     0.002419
      f-3     :     0.000927

  5 B s       :     2.639325  s :     2.639325
      pz      :     0.645555  p :     1.926798
      px      :     0.636823
      py      :     0.644419
      dz2     :     0.034740  d :     0.167145
      dxz     :     0.033330
      dyz     :     0.032128
      dx2y2   :     0.033770
      dxy     :     0.033177
      f0      :     0.003528  f :     0.016320
      f+1     :     0.001452
      f-1     :     0.002504
      f+2     :     0.002281
      f-2     :     0.001819
      f+3     :     0.001445
      f-3     :     0.003291

  6 B s       :     2.983151  s :     2.983151
      pz      :     0.736263  p :     2.029387
      px      :     0.557447
      py      :     0.735677
      dz2     :     0.030838  d :     0.114857
      dxz     :     0.021058
      dyz     :     0.012831
      dx2y2   :     0.028997
      dxy     :     0.021133
      f0      :     0.002213  f :     0.010691
      f+1     :     0.000897
      f-1     :     0.001024
      f+2     :     0.000765
      f-2     :     0.002584
      f+3     :     0.001234
      f-3     :     0.001973

  7 B s       :     2.639313  s :     2.639313
      pz      :     0.645447  p :     1.926846
      px      :     0.634922
      py      :     0.646477
      dz2     :     0.034728  d :     0.167172
      dxz     :     0.033251
      dyz     :     0.032206
      dx2y2   :     0.033624
      dxy     :     0.033363
      f0      :     0.003527  f :     0.016325
      f+1     :     0.001463
      f-1     :     0.002496
      f+2     :     0.002275
      f-2     :     0.001824
      f+3     :     0.001420
      f-3     :     0.003320

  8 B s       :     3.155672  s :     3.155672
      pz      :     0.501556  p :     1.812738
      px      :     0.809290
      py      :     0.501892
      dz2     :     0.029131  d :     0.133637
      dxz     :     0.029585
      dyz     :     0.007837
      dx2y2   :     0.037450
      dxy     :     0.029635
      f0      :     0.000918  f :     0.010313
      f+1     :     0.002760
      f-1     :     0.001198
      f+2     :     0.001208
      f-2     :     0.000885
      f+3     :     0.002412
      f-3     :     0.000933

  9 B s       :     2.982958  s :     2.982958
      pz      :     0.736291  p :     2.029168
      px      :     0.557383
      py      :     0.735494
      dz2     :     0.030831  d :     0.114831
      dxz     :     0.021047
      dyz     :     0.012820
      dx2y2   :     0.028999
      dxy     :     0.021132
      f0      :     0.002210  f :     0.010688
      f+1     :     0.000900
      f-1     :     0.001023
      f+2     :     0.000764
      f-2     :     0.002584
      f+3     :     0.001234
      f-3     :     0.001974

 10 B s       :     2.639517  s :     2.639517
      pz      :     0.645666  p :     1.926821
      px      :     0.634690
      py      :     0.646465
      dz2     :     0.034712  d :     0.167168
      dxz     :     0.033288
      dyz     :     0.032209
      dx2y2   :     0.033604
      dxy     :     0.033356
      f0      :     0.003527  f :     0.016324
      f+1     :     0.001461
      f-1     :     0.002497
      f+2     :     0.002276
      f-2     :     0.001824
      f+3     :     0.001421
      f-3     :     0.003317

 11 B s       :     3.155657  s :     3.155657
      pz      :     0.501685  p :     1.812708
      px      :     0.809240
      py      :     0.501782
      dz2     :     0.029112  d :     0.133663
      dxz     :     0.029601
      dyz     :     0.007839
      dx2y2   :     0.037459
      dxy     :     0.029651
      f0      :     0.000919  f :     0.010315
      f+1     :     0.002759
      f-1     :     0.001198
      f+2     :     0.001208
      f-2     :     0.000886
      f+3     :     0.002413
      f-3     :     0.000933



                     *******************************
                     * LOEWDIN POPULATION ANALYSIS *
                     *******************************

----------------------
LOEWDIN ATOMIC CHARGES
----------------------
   0 B :    0.011836
   1 B :    0.034068
   2 B :   -0.045551
   3 B :    0.011586
   4 B :    0.034192
   5 B :   -0.045806
   6 B :    0.011633
   7 B :   -0.046099
   8 B :    0.034242
   9 B :    0.011702
  10 B :   -0.046015
  11 B :    0.034213

-------------------------------
LOEWDIN REDUCED ORBITAL CHARGES
-------------------------------
  0 B s       :     2.504248  s :     2.504248
      pz      :     0.722766  p :     1.989827
      px      :     0.544024
      py      :     0.723037
      dz2     :     0.100666  d :     0.413026
      dxz     :     0.080857
      dyz     :     0.069403
      dx2y2   :     0.081287
      dxy     :     0.080813
      f0      :     0.014808  f :     0.081064
      f+1     :     0.007871
      f-1     :     0.007639
      f+2     :     0.006435
      f-2     :     0.021609
      f+3     :     0.009096
      f-3     :     0.013607

  1 B s       :     2.561365  s :     2.561365
      pz      :     0.501666  p :     1.892788
      px      :     0.889483
      py      :     0.501639
      dz2     :     0.089916  d :     0.436478
      dxz     :     0.105692
      dyz     :     0.034999
      dx2y2   :     0.100189
      dxy     :     0.105682
      f0      :     0.007983  f :     0.075302
      f+1     :     0.017939
      f-1     :     0.007149
      f+2     :     0.009060
      f-2     :     0.005399
      f+3     :     0.017873
      f-3     :     0.009899

  2 B s       :     2.473150  s :     2.473150
      pz      :     0.606353  p :     1.884095
      px      :     0.672101
      py      :     0.605642
      dz2     :     0.106331  d :     0.589357
      dxz     :     0.116180
      dyz     :     0.123246
      dx2y2   :     0.127724
      dxy     :     0.115876
      f0      :     0.021158  f :     0.098949
      f+1     :     0.010003
      f-1     :     0.014913
      f+2     :     0.012700
      f-2     :     0.011213
      f+3     :     0.010071
      f-3     :     0.018891

  3 B s       :     2.504202  s :     2.504202
      pz      :     0.722736  p :     1.989964
      px      :     0.544150
      py      :     0.723078
      dz2     :     0.100694  d :     0.413166
      dxz     :     0.080892
      dyz     :     0.069447
      dx2y2   :     0.081312
      dxy     :     0.080821
      f0      :     0.014818  f :     0.081082
      f+1     :     0.007865
      f-1     :     0.007649
      f+2     :     0.006433
      f-2     :     0.021614
      f+3     :     0.009096
      f-3     :     0.013608

  4 B s       :     2.561441  s :     2.561441
      pz      :     0.501544  p :     1.892729
      px      :     0.889431
      py      :     0.501754
      dz2     :     0.089883  d :     0.436357
      dxz     :     0.105665
      dyz     :     0.034977
      dx2y2   :     0.100158
      dxy     :     0.105674
      f0      :     0.007980  f :     0.075281
      f+1     :     0.017936
      f-1     :     0.007143
      f+2     :     0.009058
      f-2     :     0.005401
      f+3     :     0.017865
      f-3     :     0.009897

  5 B s       :     2.473095  s :     2.473095
      pz      :     0.606747  p :     1.884176
      px      :     0.671885
      py      :     0.605543
      dz2     :     0.106364  d :     0.589554
      dxz     :     0.116265
      dyz     :     0.123367
      dx2y2   :     0.127711
      dxy     :     0.115846
      f0      :     0.021176  f :     0.098982
      f+1     :     0.009997
      f-1     :     0.014928
      f+2     :     0.012707
      f-2     :     0.011223
      f+3     :     0.010072
      f-3     :     0.018878

  6 B s       :     2.504178  s :     2.504178
      pz      :     0.722699  p :     1.989977
      px      :     0.545162
      py      :     0.722116
      dz2     :     0.100688  d :     0.413134
      dxz     :     0.080811
      dyz     :     0.069549
      dx2y2   :     0.081242
      dxy     :     0.080843
      f0      :     0.014821  f :     0.081079
      f+1     :     0.007811
      f-1     :     0.007695
      f+2     :     0.006521
      f-2     :     0.021527
      f+3     :     0.009039
      f-3     :     0.013664

  7 B s       :     2.473000  s :     2.473000
      pz      :     0.606685  p :     1.884295
      px      :     0.669874
      py      :     0.607736
      dz2     :     0.106410  d :     0.589785
      dxz     :     0.115830
      dyz     :     0.123855
      dx2y2   :     0.127484
      dxy     :     0.116206
      f0      :     0.021176  f :     0.099019
      f+1     :     0.010044
      f-1     :     0.014895
      f+2     :     0.012684
      f-2     :     0.011249
      f+3     :     0.009956
      f-3     :     0.019016

  8 B s       :     2.561469  s :     2.561469
      pz      :     0.501377  p :     1.892662
      px      :     0.889714
      py      :     0.501571
      dz2     :     0.089886  d :     0.436343
      dxz     :     0.105761
      dyz     :     0.034835
      dx2y2   :     0.099987
      dxy     :     0.105873
      f0      :     0.007973  f :     0.075284
      f+1     :     0.017976
      f-1     :     0.007104
      f+2     :     0.009059
      f-2     :     0.005412
      f+3     :     0.017830
      f-3     :     0.009930

  9 B s       :     2.504276  s :     2.504276
      pz      :     0.722787  p :     1.989949
      px      :     0.545133
      py      :     0.722028
      dz2     :     0.100671  d :     0.413027
      dxz     :     0.080802
      dyz     :     0.069510
      dx2y2   :     0.081219
      dxy     :     0.080826
      f0      :     0.014802  f :     0.081047
      f+1     :     0.007815
      f-1     :     0.007691
      f+2     :     0.006523
      f-2     :     0.021524
      f+3     :     0.009036
      f-3     :     0.013656

 10 B s       :     2.473027  s :     2.473027
      pz      :     0.606910  p :     1.884266
      px      :     0.669644
      py      :     0.607712
      dz2     :     0.106389  d :     0.589716
      dxz     :     0.115860
      dyz     :     0.123855
      dx2y2   :     0.127451
      dxy     :     0.116161
      f0      :     0.021176  f :     0.099006
      f+1     :     0.010035
      f-1     :     0.014900
      f+2     :     0.012689
      f-2     :     0.011248
      f+3     :     0.009958
      f-3     :     0.019001

 11 B s       :     2.561435  s :     2.561435
      pz      :     0.501447  p :     1.892662
      px      :     0.889730
      py      :     0.501485
      dz2     :     0.089867  d :     0.436385
      dxz     :     0.105811
      dyz     :     0.034815
      dx2y2   :     0.099988
      dxy     :     0.105902
      f0      :     0.007979  f :     0.075306
      f+1     :     0.017977
      f-1     :     0.007104
      f+2     :     0.009056
      f-2     :     0.005415
      f+3     :     0.017840
      f-3     :     0.009936



                      *****************************
                      * MAYER POPULATION ANALYSIS *
                      *****************************

  NA   - Mulliken gross atomic population
  ZA   - Total nuclear charge
  QA   - Mulliken gross atomic charge
  VA   - Mayer's total valence
  BVA  - Mayer's bonded valence
  FA   - Mayer's free valence

  ATOM       NA         ZA         QA         VA         BVA        FA
  0 B      5.1378     5.0000    -0.1378     3.9155     3.9155    -0.0000
  1 B      5.1126     5.0000    -0.1126     3.5362     3.5362    -0.0000
  2 B      4.7497     5.0000     0.2503     3.2488     3.2488     0.0000
  3 B      5.1375     5.0000    -0.1375     3.9155     3.9155    -0.0000
  4 B      5.1128     5.0000    -0.1128     3.5360     3.5360    -0.0000
  5 B      4.7496     5.0000     0.2504     3.2485     3.2485    -0.0000
  6 B      5.1381     5.0000    -0.1381     3.9158     3.9158     0.0000
  7 B      4.7497     5.0000     0.2503     3.2481     3.2481    -0.0000
  8 B      5.1124     5.0000    -0.1124     3.5358     3.5358    -0.0000
  9 B      5.1376     5.0000    -0.1376     3.9154     3.9154    -0.0000
 10 B      4.7498     5.0000     0.2502     3.2484     3.2484    -0.0000
 11 B      5.1123     5.0000    -0.1123     3.5358     3.5358    -0.0000

  Mayer bond orders larger than 0.100000
B(  0-B ,  1-B ) :   1.3711 B(  0-B ,  5-B ) :   0.6778 B(  0-B ,  6-B ) :   0.8562 
B(  0-B ,  7-B ) :   0.6782 B(  1-B ,  2-B ) :   0.9122 B(  1-B ,  4-B ) :   0.1357 
B(  1-B ,  5-B ) :   0.3055 B(  1-B ,  7-B ) :   0.3058 B(  1-B ,  8-B ) :   0.1357 
B(  1-B , 11-B ) :   0.1343 B(  2-B ,  3-B ) :   0.6780 B(  2-B ,  4-B ) :   0.3057 
B(  2-B ,  8-B ) :   0.3053 B(  2-B ,  9-B ) :   0.6783 B(  2-B , 10-B ) :   0.1939 
B(  3-B ,  4-B ) :   1.3707 B(  3-B ,  9-B ) :   0.8562 B(  3-B , 10-B ) :   0.6784 
B(  4-B ,  5-B ) :   0.9121 B(  4-B ,  8-B ) :   0.1343 B(  4-B , 10-B ) :   0.3057 
B(  4-B , 11-B ) :   0.1357 B(  5-B ,  6-B ) :   0.6783 B(  5-B ,  7-B ) :   0.1940 
B(  5-B , 11-B ) :   0.3054 B(  6-B ,  7-B ) :   0.6775 B(  6-B , 11-B ) :   1.3714 
B(  7-B ,  8-B ) :   0.9118 B(  7-B , 11-B ) :   0.3054 B(  8-B ,  9-B ) :   1.3713 
B(  8-B , 10-B ) :   0.3057 B(  8-B , 11-B ) :   0.1357 B(  9-B , 10-B ) :   0.6773 
B( 10-B , 11-B ) :   0.9120 

-------
TIMINGS
-------

Total SCF time: 0 days 0 hours 0 min 30 sec 

Total time                  ....      30.150 sec
Sum of individual times     ....      22.309 sec  ( 74.0%)

SCF preparation             ....       0.128 sec  (  0.4%)
Fock matrix formation       ....      21.751 sec  ( 72.1%)
  Startup                   ....       0.013 sec  (  0.1% of F)
  Coulomb+Exchange Fock     ....      29.443 sec  (135.4% of F)
Diagonalization             ....       0.000 sec  (  0.0%)
Density matrix formation    ....       0.042 sec  (  0.1%)
Total Energy calculation    ....       0.022 sec  (  0.1%)
Population analysis         ....       0.075 sec  (  0.2%)
Orbital Transformation      ....       0.053 sec  (  0.2%)
Orbital Orthonormalization  ....       0.000 sec  (  0.0%)
DIIS solution               ....       0.085 sec  (  0.3%)
SOSCF solution              ....       0.147 sec  (  0.5%)
Finished LeanSCF after  30.2 sec

Maximum memory used throughout the entire LEANSCF-calculation: 26.9 MB


           ************************************************************
           *        Program running with 8 parallel MPI-processes     *
           *              working on a common directory               *
           ************************************************************

------------------------------------------------------------------------------
                         ORCA PROPERTY INTEGRAL CALCULATIONS
------------------------------------------------------------------------------

GBWName                                   ... b12_hexagonal_prism_m1_dlpno.gbw
Number of atoms                           ...     12
Number of basis functions                 ...    372
Max core memory                           ...   2500 MB

Dipole integrals                          ... YES
Quadrupole integrals                      ...  NO
Linear momentum integrals                 ... YES
Angular momentum integrals                ... YES
Higher moments length integrals           ...  NO
Higher moments velocity integrals         ...  NO
Kinetic energy integrals                  ...  NO
GIAO right hand sides                     ...  NO
GIAO dipole derivative integrals          ...  NO
SOC integrals                             ...  NO
EPR diamagnetic integrals (GIAO)          ...  NO
EPR gauge integrals                       ...  NO
Field gradient integrals                  ...  NO (   0 nuclei)
Spin-dipole/Fermi contact integrals       ...  NO (   0 nuclei)
Contact density integrals                 ...  NO (   0 nuclei)
Nucleus-orbit integrals                   ...  NO (   0 nuclei)
Geometric perturbations                   ...  NO (  12 nuclei)

Choice of electric origin   ... Center of mass
Position of electric origin ... (  0.0000,  0.0000, -0.0000) 
Choice of magnetic origin   ... GIAO
Position of magnetic origin ... (  0.0000,  0.0000,  0.0000) 

Calculating integrals                     ... Electric Dipole (Length)     done (  0.0 sec)
Calculating integrals                     ... Linear Momentum              done (  0.0 sec)
Calculating integrals                     ... Angular Momentum  (ElOri)    done (  0.1 sec)

Property integrals calculated in   0.1 sec

Maximum memory used throughout the entire PROPINT-calculation: 23.0 MB


           ************************************************************
           *        Program running with 8 parallel MPI-processes     *
           *              working on a common directory               *
           ************************************************************


--------------------------------------------------------------------------------
                             ORCA-MATRIX DRIVEN CI
--------------------------------------------------------------------------------


Wavefunction type
-----------------
Correlation treatment                      ...      CCSD     
Single excitations                         ... ON
Orbital optimization                       ... OFF
Calculation of Z vector                    ... OFF
Calculation of Brueckner orbitals          ... OFF
Perturbative triple excitations            ... ON
Calculation of F12 correction              ... OFF
Frozen core treatment                      ... chemical core (24 el)
Reference Wavefunction                     ... RHF
  Internal Orbitals:    12 ...   29 ( 18 MO's/ 36 electrons)
  Virtual  Orbitals:    30 ...  371 (342 MO's              )
Number of AO's                             ...    372
Number of electrons                        ...     60
Number of correlated electrons             ...     36

Algorithmic settings
--------------------
Integral transformation                    ... All integrals via the RI transformation
K(C) Formation                             ... RI-DLPNO
   PNO-Integral Storage                    ... ON DISK
   PNO occupation number cut-off           ... 1.000e-07
   Singles PNO occupation number cut-off   ... 3.000e-09
   PNO Mulliken prescreening cut-off       ... 1.000e-03
   Domain cut-off (Mulliken population)    ... 1.000e-03
   PNO Normalization                       ...    1
Maximum number of iterations               ...       200
Convergence tolerance (max. residuum)      ... 1.000e-05
Level shift for amplitude update           ... 2.000e-01
Maximum number of DIIS vectors             ...         7
DIIS turned on at iteration                ...         0
Damping before turning on DIIS             ...     0.500
Damping after turning on DIIS              ...     0.000
Pair specific amplitude update             ... OFF
Natural orbital iterations                 ... OFF
Perturbative natural orbital generation    ... OFF
Printlevel                                 ... 3

Singles Fock matrix elements calculated using PNOs.

Memory handling:
----------------
Maximum memory for working arrays          ...   2500 MB
Data storage in matrix containers          ... UNCOMPRESSED
Data type for integral storage             ... DOUBLE
In-Core Storage of quantities:
   Amplitudes+Sigma Vector      ... NO
   J+K operators                ... NO
   DIIS vectors                 ... NO
   3-external integrals         ... NO
   4-external integrals         ... NO

Localization treatment:
-----------------------
Localization option                        ...    6
Localization threshhold                    ... -1.0e+00
Using relative localization threshhold     ... 1.0e-08
Neglect threshold for strong pairs         ... 1.000e-05 Eh
Prescreening threshold for very weak pairs ... 1.000e-07 Eh

Initializing the integral package          ... done
Localizing the valence orbitals
Localizing the valence orbitals
------------------------------------------------------------------------------
                           ORCA ORBITAL LOCALIZATION
------------------------------------------------------------------------------

Input orbitals are from                  ... b12_hexagonal_prism_m1_dlpno.gbw
Output orbitals are to                   ... b12_hexagonal_prism_m1_dlpno.loc
Max. number of iterations                ... 128
Localizations seeded randomly            ... off
Convergence tolerance                    ... 1.000e-06
Using relative localization threshhold   ... 1.000e-08
Threshold for strong local MOs           ... 9.500e-01
Threshold for bond MOs                   ... 8.500e-01
Operator                                 ... 0
Orbital range for localization           ... 12 to 29
Localization criterion                   ... FOSTER-BOYS (AUGMENTED HESSIAN)
Doing the dipole integrals               ... o.k.
Initial value of the localization sum :    93.643837
ITERATION   0 : L=  165.2111649861 DL=  7.16e+01 (AVERGE_DL)=    0.6839300513 
ITERATION   1 : L=  183.1867435631 DL=  1.80e+01 (AVERGE_DL)=    0.3427644113 
ITERATION   2 : L=  183.7372049051 DL=  5.50e-01 (AVERGE_DL)=    0.0599815517 
ITERATION   3 : L=  183.8290451767 DL=  9.18e-02 (AVERGE_DL)=    0.0245002697 
ITERATION   4 : L=  183.9654934755 DL=  1.36e-01 (AVERGE_DL)=    0.0298633378 
ITERATION   5 : L=  184.1289366022 DL=  1.63e-01 (AVERGE_DL)=    0.0326841817 
ITERATION   6 : L=  184.2589277110 DL=  1.30e-01 (AVERGE_DL)=    0.0291481576 
ITERATION   7 : L=  184.3333384212 DL=  7.44e-02 (AVERGE_DL)=    0.0220532200 
ITERATION   8 : L=  184.3692255549 DL=  3.59e-02 (AVERGE_DL)=    0.0153152352 
ITERATION   9 : L=  184.3863159701 DL=  1.71e-02 (AVERGE_DL)=    0.0105689195 
ITERATION  10 : L=  184.3952199665 DL=  8.90e-03 (AVERGE_DL)=    0.0076286339 
ITERATION  11 : L=  184.4004949123 DL=  5.27e-03 (AVERGE_DL)=    0.0058716922 
ITERATION  12 : L=  184.4039953339 DL=  3.50e-03 (AVERGE_DL)=    0.0047831551 
ITERATION  13 : L=  184.4065058946 DL=  2.51e-03 (AVERGE_DL)=    0.0040507892 
ITERATION  14 : L=  184.4083962811 DL=  1.89e-03 (AVERGE_DL)=    0.0035150344 
ITERATION  15 : L=  184.4098656353 DL=  1.47e-03 (AVERGE_DL)=    0.0030989712 
ITERATION  16 : L=  184.4110342655 DL=  1.17e-03 (AVERGE_DL)=    0.0027637124 
ITERATION  17 : L=  184.4119807348 DL=  9.46e-04 (AVERGE_DL)=    0.0024871819 
ITERATION  18 : L=  184.4127589282 DL=  7.78e-04 (AVERGE_DL)=    0.0022552675 
ITERATION  19 : L=  184.4134070373 DL=  6.48e-04 (AVERGE_DL)=    0.0020581562 
ITERATION  20 : L=  184.4139528098 DL=  5.46e-04 (AVERGE_DL)=    0.0018886875 
ITERATION  21 : L=  184.4144168065 DL=  4.64e-04 (AVERGE_DL)=    0.0017414529 
ITERATION  22 : L=  184.4148145699 DL=  3.98e-04 (AVERGE_DL)=    0.0016123774 
ITERATION  23 : L=  184.4151580046 DL=  3.43e-04 (AVERGE_DL)=    0.0014982228 
ITERATION  24 : L=  184.4154563950 DL=  2.98e-04 (AVERGE_DL)=    0.0013965184 
ITERATION  25 : L=  184.4157170658 DL=  2.61e-04 (AVERGE_DL)=    0.0013052703 
ITERATION  26 : L=  184.4159458837 DL=  2.29e-04 (AVERGE_DL)=    0.0012229236 
ITERATION  27 : L=  184.4161475869 DL=  2.02e-04 (AVERGE_DL)=    0.0011481817 
ITERATION  28 : L=  184.4163260525 DL=  1.78e-04 (AVERGE_DL)=    0.0010800195 
ITERATION  29 : L=  184.4164844692 DL=  1.58e-04 (AVERGE_DL)=    0.0010175477 
ITERATION  30 : L=  184.4166255079 DL=  1.41e-04 (AVERGE_DL)=    0.0009601152 
ITERATION  31 : L=  184.4167513904 DL=  1.26e-04 (AVERGE_DL)=    0.0009070618 
ITERATION  32 : L=  184.4168640130 DL=  1.13e-04 (AVERGE_DL)=    0.0008579602 
ITERATION  33 : L=  184.4169649708 DL=  1.01e-04 (AVERGE_DL)=    0.0008123145 
ITERATION  34 : L=  184.4170556461 DL=  9.07e-05 (AVERGE_DL)=    0.0007698372 
ITERATION  35 : L=  184.4171372078 DL=  8.16e-05 (AVERGE_DL)=    0.0007301252 
ITERATION  36 : L=  184.4172106905 DL=  7.35e-05 (AVERGE_DL)=    0.0006930215 
ITERATION  37 : L=  184.4172769689 DL=  6.63e-05 (AVERGE_DL)=    0.0006581733 
ITERATION  38 : L=  184.4173368312 DL=  5.99e-05 (AVERGE_DL)=    0.0006255056 
ITERATION  39 : L=  184.4173909474 DL=  5.41e-05 (AVERGE_DL)=    0.0005947271 
ITERATION  40 : L=  184.4174399207 DL=  4.90e-05 (AVERGE_DL)=    0.0005657623 
ITERATION  41 : L=  184.4174842702 DL=  4.43e-05 (AVERGE_DL)=    0.0005383920 
ITERATION  42 : L=  184.4175244717 DL=  4.02e-05 (AVERGE_DL)=    0.0005125965 
ITERATION  43 : L=  184.4175609326 DL=  3.65e-05 (AVERGE_DL)=    0.0004881665 
ITERATION  44 : L=  184.4175940218 DL=  3.31e-05 (AVERGE_DL)=    0.0004650472 
ITERATION  45 : L=  184.4176240698 DL=  3.00e-05 (AVERGE_DL)=    0.0004431615 
ITERATION  46 : L=  184.4176513673 DL=  2.73e-05 (AVERGE_DL)=    0.0004223926 
ITERATION  47 : L=  184.4176761802 DL=  2.48e-05 (AVERGE_DL)=    0.0004027104 
ITERATION  48 : L=  184.4176987398 DL=  2.26e-05 (AVERGE_DL)=    0.0003839898 
ITERATION  49 : L=  184.4177192606 DL=  2.05e-05 (AVERGE_DL)=    0.0003662284 
ITERATION  50 : L=  184.4177379320 DL=  1.87e-05 (AVERGE_DL)=    0.0003493354 
ITERATION  51 : L=  184.4177549269 DL=  1.70e-05 (AVERGE_DL)=    0.0003332830 
ITERATION  52 : L=  184.4177703987 DL=  1.55e-05 (AVERGE_DL)=    0.0003179984 
ITERATION  53 : L=  184.4177844879 DL=  1.41e-05 (AVERGE_DL)=    0.0003034572 
ITERATION  54 : L=  184.4177973210 DL=  1.28e-05 (AVERGE_DL)=    0.0002896145 
ITERATION  55 : L=  184.4178090081 DL=  1.17e-05 (AVERGE_DL)=    0.0002763801 
ITERATION  56 : L=  184.4178196600 DL=  1.07e-05 (AVERGE_DL)=    0.0002638572 
ITERATION  57 : L=  184.4178293663 DL=  9.71e-06 (AVERGE_DL)=    0.0002518726 
ITERATION  58 : L=  184.4178382123 DL=  8.85e-06 (AVERGE_DL)=    0.0002404508 
ITERATION  59 : L=  184.4178462725 DL=  8.06e-06 (AVERGE_DL)=    0.0002295241 
ITERATION  60 : L=  184.4178536247 DL=  7.35e-06 (AVERGE_DL)=    0.0002192109 
ITERATION  61 : L=  184.4178603232 DL=  6.70e-06 (AVERGE_DL)=    0.0002092403 
ITERATION  62 : L=  184.4178664341 DL=  6.11e-06 (AVERGE_DL)=    0.0001998509 
ITERATION  63 : L=  184.4178720042 DL=  5.57e-06 (AVERGE_DL)=    0.0001908034 
ITERATION  64 : L=  184.4178770846 DL=  5.08e-06 (AVERGE_DL)=    0.0001822224 
ITERATION  65 : L=  184.4178817167 DL=  4.63e-06 (AVERGE_DL)=    0.0001739975 
ITERATION  66 : L=  184.4178859413 DL=  4.22e-06 (AVERGE_DL)=    0.0001661678 
ITERATION  67 : L=  184.4178897948 DL=  3.85e-06 (AVERGE_DL)=    0.0001587021 
ITERATION  68 : L=  184.4178933094 DL=  3.51e-06 (AVERGE_DL)=    0.0001515632 
ITERATION  69 : L=  184.4178965154 DL=  3.21e-06 (AVERGE_DL)=    0.0001447549 
ITERATION  70 : L=  184.4178994395 DL=  2.92e-06 (AVERGE_DL)=    0.0001382450 
ITERATION  71 : L=  184.4179021069 DL=  2.67e-06 (AVERGE_DL)=    0.0001320372 
ITERATION  72 : L=  184.4179045403 DL=  2.43e-06 (AVERGE_DL)=    0.0001261143 
ITERATION  73 : L=  184.4179067574 DL=  2.22e-06 (AVERGE_DL)=    0.0001203777 
ITERATION  74 : L=  184.4179087809 DL=  2.02e-06 (AVERGE_DL)=    0.0001150023 
ITERATION  75 : L=  184.4179106274 DL=  1.85e-06 (AVERGE_DL)=    0.0001098572 
ITERATION  76 : L=  184.4179123128 DL=  1.69e-06 (AVERGE_DL)=    0.0001049549 
ITERATION  77 : L=  184.4179138478 DL=  1.54e-06 (AVERGE_DL)=    0.0001001654 
ITERATION  78 : L=  184.4179152512 DL=  1.40e-06 (AVERGE_DL)=    0.0000957729 
ITERATION  79 : L=  184.4179165272 DL=  1.28e-06 (AVERGE_DL)=    0.0000913233 
ITERATION  80 : L=  184.4179176940 DL=  1.17e-06 (AVERGE_DL)=    0.0000873275 
ITERATION  81 : L=  184.4179187563 DL=  1.06e-06 (AVERGE_DL)=    0.0000833251 
ITERATION  82 : L=  184.4179197282 DL=  9.72e-07 (AVERGE_DL)=    0.0000797031 
LOCALIZATION SUM CONVERGED

------------------------------------------------------
AUGMENTED HESSIAN OPTIMIZATION OF FOSTER-BOYS ORBITALS
------------------------------------------------------

Spin operator:           0
Orbital window:          12 to 29
Number of iterations:    128
Gradient tolerance:      1.000e-06
Number of pairs:         153
Davidson threshold:      2000
Diagonalization method:  LAPACK
Iter:    0   L: 184.4179197282   Grad. norm: 3.771135e-03
   *** Likely close to a maximum now. ***
       Augmented Hessian eigenvalues:  2.02e-05 -3.26e-01 -3.30e-01 -3.64e+00 ... 
Iter:    1   L: 184.4179298374   Grad. norm: 1.783112e-04
Iter:    2   L: 184.4179298379   Grad. norm: 3.763054e-10
LOCALIZATION HAS CONVERGED.

Eigenvalues of the Hessian:
  0 -3.264e-01
  1 -3.309e-01
  2 -3.639e+00
  3 -3.735e+00
  4 -8.672e+00
  5 -8.675e+00
  6 -1.233e+01
  7 -1.233e+01
  8 -1.236e+01
  9 -1.239e+01
    ...


--------------------------------------------------------------------------------
                    LOCALIZED MOLECULAR ORBITAL COMPOSITIONS
--------------------------------------------------------------------------------

The Mulliken populations for each LMO on each atom are computed
The LMO`s will be ordered according to atom index and type
  (A) Strongly localized MO`s have populations of >=0.950 on one atom
  (B) Two center bond orbitals have populations of >=0.850 on two atoms
  (C) Other MO`s are considered to be `delocalized`

FOUND  -   0 strongly local MO`s
       -   8 two center bond MO`s
       -  10 significantly delocalized MO`s

Bond-like localized orbitals:
MO  19:  11B  -   0.503755  and  10B  -   0.455356
MO  18:  11B  -   0.497343  and   6B  -   0.452344
MO  17:   9B  -   0.452368  and   8B  -   0.497343
MO  16:   8B  -   0.503731  and   7B  -   0.455335
MO  15:   5B  -   0.455236  and   4B  -   0.503888
MO  14:   4B  -   0.497302  and   3B  -   0.452100
MO  13:   2B  -   0.455296  and   1B  -   0.503858
MO  12:   1B  -   0.497214  and   0B  -   0.452414
More delocalized orbitals:
MO  29:  0B - 0.392 5B - 0.110 6B - 0.392 7B - 0.113
MO  28:  5B - 0.377 6B - 0.310 11B - 0.241
MO  27:  2B - 0.376 3B - 0.310 4B - 0.241
MO  26:  6B - 0.309 7B - 0.375 11B - 0.242
MO  25:  3B - 0.309 4B - 0.242 10B - 0.376
MO  24:  2B - 0.377 8B - 0.241 9B - 0.310
MO  23:  8B - 0.242 9B - 0.309 10B - 0.376
MO  22:  2B - 0.110 3B - 0.392 9B - 0.392 10B - 0.113
MO  21:  0B - 0.310 1B - 0.241 5B - 0.376
MO  20:  0B - 0.309 1B - 0.242 7B - 0.376
Localized MO's were stored in: b12_hexagonal_prism_m1_dlpno.loc

Localizing the core orbitals
------------------------------------------------------------------------------
                           ORCA ORBITAL LOCALIZATION
------------------------------------------------------------------------------

Input orbitals are from                  ... b12_hexagonal_prism_m1_dlpno.loc
Output orbitals are to                   ... b12_hexagonal_prism_m1_dlpno.loc
Max. number of iterations                ... 128
Localizations seeded randomly            ... off
Convergence tolerance                    ... 1.000e-06
Using relative localization threshhold   ... 1.000e-08
Threshold for strong local MOs           ... 9.500e-01
Threshold for bond MOs                   ... 8.500e-01
Operator                                 ... 0
Orbital range for localization           ... 0 to 11
Localization criterion                   ... FOSTER-BOYS (AUGMENTED HESSIAN)
Doing the dipole integrals               ... o.k.
Initial value of the localization sum :   132.901252
ITERATION   0 : L=  132.9012756424 DL=  2.37e-05 (AVERGE_DL)=    0.0005995663 
ITERATION   1 : L=  132.9012756424 DL=  0.00e+00 (AVERGE_DL)=    0.0000000000 
LOCALIZATION SUM CONVERGED

------------------------------------------------------
AUGMENTED HESSIAN OPTIMIZATION OF FOSTER-BOYS ORBITALS
------------------------------------------------------

Spin operator:           0
Orbital window:          0 to 11
Number of iterations:    128
Gradient tolerance:      1.000e-06
Number of pairs:         66
Davidson threshold:      2000
Diagonalization method:  LAPACK
Iter:    0   L: 132.9012756424   Grad. norm: 1.003354e-04
   *** Likely close to a maximum now. ***
       Augmented Hessian eigenvalues:  7.43e-11 -3.32e+01 -3.32e+01 -3.32e+01 ... 
Iter:    1   L: 132.9012756424   Grad. norm: 2.819675e-16
LOCALIZATION HAS CONVERGED.

Eigenvalues of the Hessian:
  0 -3.323e+01
  1 -3.323e+01
  2 -3.324e+01
  3 -3.325e+01
  4 -3.751e+01
  5 -3.751e+01
  6 -3.751e+01
  7 -3.752e+01
  8 -4.001e+01
  9 -4.001e+01
    ...


--------------------------------------------------------------------------------
                    LOCALIZED MOLECULAR ORBITAL COMPOSITIONS
--------------------------------------------------------------------------------

The Mulliken populations for each LMO on each atom are computed
The LMO`s will be ordered according to atom index and type
  (A) Strongly localized MO`s have populations of >=0.950 on one atom
  (B) Two center bond orbitals have populations of >=0.850 on two atoms
  (C) Other MO`s are considered to be `delocalized`

FOUND  -  12 strongly local MO`s
       -   0 two center bond MO`s
       -   0 significantly delocalized MO`s

Rather strongly localized orbitals:
MO  11:  11B  -   1.005229
MO  10:  10B  -   1.007571
MO   9:   9B  -   1.013670
MO   8:   8B  -   1.005227
MO   7:   7B  -   1.007569
MO   6:   6B  -   1.013671
MO   5:   5B  -   1.007573
MO   4:   4B  -   1.005231
MO   3:   3B  -   1.013682
MO   2:   2B  -   1.007577
MO   1:   1B  -   1.005231
MO   0:   0B  -   1.013676
Localized MO's were stored in: b12_hexagonal_prism_m1_dlpno.loc

Warning: reference  - re-canonicalizations have been set to INT 1 VIRT 1
Warning: internal orbitals are localized - no re-canonicalization of internal orbitals
Warning: UsePNO is turned on - no re-canonicalization of internal and virtual orbitals
Fock densities were made 
Making Fock matrix and reference energy:

--------------------------
CLOSED-SHELL FOCK OPERATOR
--------------------------

Time needed for Fock operator              ...           15.577 sec
Reference energy                           ...   -295.832250092

--------------
DLPNO SETTINGS (2015 fully linear scaling implementation)
--------------

TCutMKN:           1.000e-03
TCutPAO:           1.000e-03
TCutPNO:           1.000e-07
TCutPNOSingles:    3.000e-09
TCutEN:            9.700e-01
TCutPAOExt:        1.000e-01
TCutPairs:         1.000e-05
TCutPre:           1.000e-07
TCutOSV:           1.000e-06
TCutDOij:          1.000e-05
TCutDO:            5.000e-03
TCutC:             1.000e-04
TCutCPAO:          1.000e-03
TCutCMO:           1.000e-03
TScaleDOMP2PreScr: 2.000e+00
TScaleMKNMP2PreScr:1.000e+01
TScalePNOMP2PreScr:1.000e+00
PAO overlap thresh 1.000e-08
Using PNOs for Singles Fock computation
Use new domains
Use fully linear algorithm
TCutTNO:           1.000e-09
TCutMP2Pairs:      1.000e-06
TCutDOStrong:      1.000e-02
TCutDOWeak:        2.000e-02
TCutMKNStrong:     1.000e-02
TCutMKNWeak:       1.000e-01
NTCutTNO:          1

--------------------------
Mulliken population of the LMOs            ... ok
Performing proximity check                 ... No problems found
Calculating differential overlap integrals ... ok

--------------------------
ELECTRON PAIR PRESCREENING
--------------------------

Dipole-based pair screening          .... used

   TCutDOij = 1.000000e-05
   TCutPre  = 1.000000e-07
   .... Finished loop over pairs
Total time spent in the prescreening                  ...     0.010 sec
Time for pair-prescreening                            ...     0.000 sec
Time for pairlist organization                        ...     0.000 sec
Number of pairs skipped by pre-screening              ... 0
sum of pair energies estimated for screened out pairs ...       0.000000000000 Eh
Thresholds for map construction and integral transformation for crude MP2:
   TCutMKN                    ...     1.0e-02
   TCutDO                     ...     1.0e-02
   TCutPairs                  ...     1.0e-05
   TCutPNO_CrudeMP2           ...     1.0e-07
   TCutPNOSingles_CrudeMP2    ...     3.0e-09
--------------------------------
LOCAL RI TRANSFORMATION (IAVPAO)
--------------------------------

Orbital window:      12 to 29
Number of PAOs:     372
Basis functions:    372 (132 shells)
Aux. functions:     912 (264 shells)
Use SHARK:           on
Have SHARK:         yes

Processing maps (0.0 sec)
Average map sizes:
   Aux shells -> MOs              18.0
   Aux shells -> PAOs            372.0
   MOs        -> AO shells       132.0
   PAOs       -> AO shells       132.0

Calculating integrals (0.6 sec, 46.601 MB)
Sorting integrals (0.1 sec, 46.591 MB)
Total time for the integral transformation: 0.7 sec
--------------------------------
INITIAL GUESS AND PNO GENERATION
--------------------------------

PNO truncation parameters                   .... 
    PAOOverlapThresh   =        1.000e-08

    TCutPairs          =        1.000e-05
    TCutPNO            =        1.000e-07
    TCutPNOSingles     =        3.000e-09
    TCutMP2Pairs       =        1.000e-06
    TCutMKN            =        1.000e-02
[...]
   15    12  :     -0.002328223      -0.002041129     1.14     -0.000853161      -0.001187967          93 
   16    12  :     -0.002327807      -0.002041071     1.14     -0.000853520      -0.001187551          93 
   18    15  :     -0.002328084      -0.002040791     1.14     -0.000852805      -0.001187986          93 
   19    17  :     -0.002326560      -0.002040225     1.14     -0.000853348      -0.001186877          93 
   17    13  :     -0.002326723      -0.002039507     1.14     -0.000852254      -0.001187253          93 
   23    20  :     -0.002161063      -0.001811645     1.19     -0.000754738      -0.001056907         109 
   26    25  :     -0.002160359      -0.001811168     1.19     -0.000754509      -0.001056659         109 
   27    20  :     -0.002153688      -0.001805885     1.19     -0.000752140      -0.001053745         109 
   25    21  :     -0.002152636      -0.001805031     1.19     -0.000751700      -0.001053331         109 
   28    23  :     -0.002148151      -0.001800814     1.19     -0.000749216      -0.001051598         109 
   26    24  :     -0.002146782      -0.001799598     1.19     -0.000748755      -0.001050843         109 
   28    27  :     -0.002140723      -0.001794911     1.19     -0.000746867      -0.001048044         109 
   24    21  :     -0.002140118      -0.001794337     1.19     -0.000746592      -0.001047746         109 
   19    16  :     -0.001843889      -0.001741228     1.06     -0.000752422      -0.000988806          78 
   15    13  :     -0.001841488      -0.001738901     1.06     -0.000751483      -0.000987417          78 
   16    13  :     -0.001840607      -0.001737868     1.06     -0.000751079      -0.000986790          78 
   19    15  :     -0.001840215      -0.001737452     1.06     -0.000750924      -0.000986528          78 
   17    14  :     -0.002098221      -0.001654769     1.27     -0.000628141      -0.001026627         111 
   18    12  :     -0.002098099      -0.001654745     1.27     -0.000628094      -0.001026651         111 
   23    15  :     -0.001808817      -0.001633857     1.11     -0.000628171      -0.001005686          91 
   26    13  :     -0.001807744      -0.001632818     1.11     -0.000627842      -0.001004976          91 
   27    16  :     -0.001806353      -0.001632093     1.11     -0.000627692      -0.001004401          91 
   21    19  :     -0.001806209      -0.001631967     1.11     -0.000627669      -0.001004298          91 
   24    15  :     -0.001805320      -0.001631222     1.11     -0.000627553      -0.001003669          91 
   25    16  :     -0.001805794      -0.001630947     1.11     -0.000627328      -0.001003619          91 
   20    19  :     -0.001805525      -0.001630800     1.11     -0.000627216      -0.001003584          91 
   28    13  :     -0.001804779      -0.001630792     1.11     -0.000627357      -0.001003436          91 
   22    16  :     -0.001784928      -0.001592438     1.12     -0.000642975      -0.000949463          87 
   29    19  :     -0.001784286      -0.001591813     1.12     -0.000642766      -0.000949047          87 
   29    13  :     -0.001783842      -0.001591432     1.12     -0.000642651      -0.000948781          87 
   22    15  :     -0.001783394      -0.001591026     1.12     -0.000642488      -0.000948538          87 
   26    14  :     -0.001463434      -0.001199538     1.22     -0.000462064      -0.000737474         102 
   23    12  :     -0.001462840      -0.001199005     1.22     -0.000461898      -0.000737106         102 
   20    14  :     -0.001462546      -0.001198960     1.22     -0.000461903      -0.000737057         102 
   25    12  :     -0.001461617      -0.001198240     1.22     -0.000461605      -0.000736635         102 
   27    18  :     -0.001457403      -0.001194661     1.22     -0.000460484      -0.000734176         102 
   21    17  :     -0.001456598      -0.001193945     1.22     -0.000460231      -0.000733714         102 
   24    18  :     -0.001454994      -0.001192735     1.22     -0.000459546      -0.000733189         102 
   28    17  :     -0.001454287      -0.001192167     1.22     -0.000459321      -0.000732846         102 
   25    20  :     -0.001430037      -0.001180689     1.21     -0.000423791      -0.000756898         105 
   23    21  :     -0.001428386      -0.001179105     1.21     -0.000423512      -0.000755593         105 
   27    26  :     -0.001428247      -0.001179065     1.21     -0.000423457      -0.000755609         105 
   28    24  :     -0.001417295      -0.001169928     1.21     -0.000420192      -0.000749736         105 
   14    12  :     -0.001437622      -0.001145375     1.26     -0.000444957      -0.000700418         103 
   18    14  :     -0.001436752      -0.001144513     1.26     -0.000444736      -0.000699778         103 
   17    12  :     -0.001435346      -0.001143362     1.26     -0.000444332      -0.000699031         103 
   18    17  :     -0.001434702      -0.001142971     1.26     -0.000444261      -0.000698710         103 
   16    14  :     -0.001144120      -0.001020355     1.12     -0.000371671      -0.000648683          89 
   18    13  :     -0.001143754      -0.001020223     1.12     -0.000371616      -0.000648607          89 
   17    15  :     -0.001143674      -0.001020134     1.12     -0.000371563      -0.000648571          89 
   19    12  :     -0.001143719      -0.001020057     1.12     -0.000371555      -0.000648502          89 
   29    14  :     -0.001085362      -0.000903450     1.20     -0.000319482      -0.000583968          96 
   22    12  :     -0.001084491      -0.000902728     1.20     -0.000319256      -0.000583472          96 
   22    18  :     -0.001083168      -0.000901277     1.20     -0.000318873      -0.000582404          96 
   29    17  :     -0.001082658      -0.000900761     1.20     -0.000318713      -0.000582048          96 
   29    23  :     -0.000988604      -0.000809682     1.22     -0.000331259      -0.000478424          96 
   26    22  :     -0.000988296      -0.000809488     1.22     -0.000331201      -0.000478287          96 
   22    20  :     -0.000986678      -0.000808090     1.22     -0.000330658      -0.000477433          96 
   29    25  :     -0.000986508      -0.000807953     1.22     -0.000330609      -0.000477345          96 
   29    27  :     -0.000982220      -0.000804305     1.22     -0.000329363      -0.000474943          96 
   22    21  :     -0.000981687      -0.000803862     1.22     -0.000329217      -0.000474645          96 
   29    24  :     -0.000980700      -0.000803203     1.22     -0.000328967      -0.000474236          96 
   28    22  :     -0.000980468      -0.000803043     1.22     -0.000328861      -0.000474183          96 
   29    22  :     -0.000791416      -0.000689928     1.15     -0.000245464      -0.000444463          91 
   16    15  :     -0.000627153      -0.000572196     1.10     -0.000243019      -0.000329177          71 
   19    13  :     -0.000626908      -0.000571989     1.10     -0.000242934      -0.000329054          71 



--------------------------------------------------------------------------------
                                    TIMINGS
--------------------------------------------------------------------------------


Total execution time                   ...     5389.489 sec

Localization of occupied MO's          ...        0.197 sec (  0.0%)
Fock Matrix Formation                  ...       15.577 sec (  0.3%)
Global overlap, Fock, MKN matrices     ...        0.193 sec (  0.0%)
Differential overlap integrals         ...        0.688 sec (  0.0%)
Organizing maps                        ...        0.018 sec (  0.0%)
RI 3-index integral generations        ...        3.401 sec (  0.1%)
RI-PNO integral transformation         ...      492.944 sec (  9.1%)
Initial Guess                          ...       53.545 sec (  1.0%)
DIIS Solver                            ...        8.762 sec (  0.2%)
State Vector Update                    ...        0.168 sec (  0.0%)
Sigma-vector construction              ...     3905.654 sec ( 72.5%)
  <0|H|D>                              ...        0.029 sec (  0.0% of sigma)
  <D|H|D>(0-ext)                       ...       59.014 sec (  1.5% of sigma)
  <D|H|D>(2-ext Fock)                  ...        0.492 sec (  0.0% of sigma)
  <D|H|D>(2-ext)                       ...       63.269 sec (  1.6% of sigma)
  <D|H|D>(4-ext)                       ...     1995.466 sec ( 51.1% of sigma)
  <D|H|D>(4-ext-corr)                  ...     1430.571 sec ( 36.6% of sigma)
  CCSD doubles correction              ...        8.203 sec (  0.2% of sigma)
  <S|H|S>                              ...       12.571 sec (  0.3% of sigma)
  <S|H|D>(1-ext)                       ...        2.683 sec (  0.1% of sigma)
  <D|H|S>(1-ext)                       ...        0.422 sec (  0.0% of sigma)
  <S|H|D>(3-ext)                       ...        8.264 sec (  0.2% of sigma)
  CCSD singles correction              ...        0.019 sec (  0.0% of sigma)
  Fock-dressing                        ...       98.989 sec (  2.5% of sigma)
  Singles amplitudes                   ...        2.447 sec (  0.1% of sigma)
  (ik|jl)-dressing                     ...       16.881 sec (  0.4% of sigma)
  (ij|ab),(ia|jb)-dressing             ...       19.664 sec (  0.5% of sigma)
  Pair energies                        ...        0.203 sec (  0.0% of sigma)
Total Time for computing (T)           ...      913.289 sec ( 16.9% of ALL)


Maximum memory used throughout the entire MDCI-calculation: 2516.6 MB

-------------------------   --------------------
FINAL SINGLE POINT ENERGY      -297.135984193233
-------------------------   --------------------



           ************************************************************
           *        Program running with 8 parallel MPI-processes     *
           *              working on a common directory               *
           ************************************************************

------------------------------------------------------------------------------
                              ORCA PROPERTY CALCULATIONS
------------------------------------------------------------------------------

GBWName                                 ... b12_hexagonal_prism_m1_dlpno.gbw
Number of atoms                         ...     12
Number of basis functions               ...    372
Max core memory                         ...   2500 MB

Electric properties:
Dipole moment                           ... YES
Quadrupole moment                       ...  NO
Static polarizability (Dipole/Dipole)   ...  NO
Static polarizability (Dipole/Quad.)    ...  NO
Static polarizability (Quad./Quad.)     ...  NO
Static polarizability (Velocity)        ...  NO
Static hyperpolarizability              ...  NO

Atomic electric properties:
Dipole moment                           ...  NO
Quadrupole moment                       ...  NO
Static polarizability                   ...  NO

Choice of electric origin               ... Center of mass
Position of electric origin             ...     0.000000     0.000000    -0.000000

General magnetic properties:
Magnetizability                         ...  NO

EPR properties:
g-Tensor (aka g-matrix)                 ...  NO
Zero-Field splitting spin-orbit         ...  NO
Zero-field splitting spin-spin          ...  NO
Hyperfine couplings                     ...  NO (   0 nuclei)
Quadrupole couplings                    ...  NO (   0 nuclei)
Contact density                         ...  NO (   0 nuclei)

NMR properties:
Chemical shifts                         ...  NO (   0 nuclei)
Spin-rotation constants                 ...  NO (   0 nuclei)
Spin-spin couplings                     ...  NO (   0 nuclei,    0 pairs)

Choice of magnetic origin               ... GIAO
Position of magnetic origin             ...     0.000000     0.000000     0.000000

Properties with geometric perturbations:
SCF Hessian                             ...  NO
IR spectrum                             ...  NO
VCD spectrum                            ...  NO
X-ray spectroscopy properties:
SCF XES/XAS/RIXS spectra                ...  NO

SCF SOC stabilization energy            ...  NO
Diagonal Born-Oppenheimer correction    ...  NO

-------------
DIPOLE MOMENT
-------------

Method             : SCF
Type of density    : Electron Density
Multiplicity       :   1
Irrep              :   0
Energy             :  -295.8322500904788512 Eh
Basis              : AO
                                X                 Y                 Z
Electronic contribution:      0.000028429       0.000265764       0.000105230
Nuclear contribution   :      0.000000000       0.000000000      -0.000000000
                        -----------------------------------------
Total Dipole Moment    :      0.000028429       0.000265764       0.000105230
                        -----------------------------------------
Magnitude (a.u.)       :      0.000287249
Magnitude (Debye)      :      0.000730130



--------------------
Rotational spectrum 
--------------------
 
Rotational constants in cm-1:             0.090893             0.054457             0.054453 
Rotational constants in MHz :          2724.899914          1632.591036          1632.460962 

Dipole components along the rotational axes: 
x,y,z [a.u.] :    -0.000028     0.000156     0.000239 
x,y,z [Debye]:    -0.000070     0.000398     0.000608 

 

Dipole moment calculation done in   0.0 sec 

Maximum memory used throughout the entire PROP-calculation: 19.8 MB
Converting b12_hexagonal_prism_m1_dlpno.gbw to JSON (see b12_hexagonal_prism_m1_dlpno.2jsonout) ... done

--------------------------------
SUGGESTED CITATIONS FOR THIS RUN
--------------------------------

Below you find a list of papers that are relevant to this ORCA run
We neither can nor want to force you to cite these papers, but we appreciate if you do
You receive ORCA, which is the product of decades of hard work by many enthusiastic individuals, for free
The only thing we kindly ask in return is that you cite our papers,
We deeply appreciate it, if you show your appreciation for ORCA by not just citing the generic ORCA reference.

Please note that relegating all ORCA citations to the supporting information does *not* help us.
SI sections are not indexed - citations you put there will not count into any citation statistics
But we need these citations in order to attract the funding resources that allow us to do what we are doing

Therefore, if you are a happy ORCA user, please consider citing a few of the papers listed below in the main body of your paper

In addition to the list printed below, the program has created the file b12_hexagonal_prism_m1_dlpno.bibtex that contains the list in bibtex format
You can import this file easily into all common literature databanks and citation aid programs

It goes without saying that in many instances, there are alternative algorithms to achieve similar
results as the ones you have gotten from ORCA. It is, of course, also the case that in some instances
ORCA just re-implements algorithms worked out by others. We are fully aware of that and we are also
fully appreciative of our colleagues work. Hence this citation list should not be read as indicating
that the listed papers, which are focused on our own work, are the only ones worth citing. It simply
meant to make it easier for users to cite ORCA specific papers. It is not a substitute for doing your
own literature research and citing the relevant literature in a scientifically appropriate manner.

List of essential papers. We consider these as the minimum necessary citations

  1. Neese, F.
     Software update: the ORCA program system, version 6.0
     WIRES Comput. Molec. Sci. 2025 15(1), e70019
     doi.org/10.1002/wcms.70019

List of papers to cite with high priority. The work reported in these papers was absolutely
necessary for this run to complete.
Our perspective: the developers of density functionals and basis sets usually get cited in chemistry papers
Good! But without the algorithms to do something with them, the functionals or basis sets would not do anything.
Hence, in our opinion, the algorithm design and method developments papers are equally worthy of getting cited

  1. Neese, F.; Hansen, A.; Liakos, D.G.
     Efficient and accurate approximations to the local coupled cluster singles doubles method using a truncated pair natural orbital basis
     J. Chem. Phys. 2009 131 , 064103
     doi.org/10.1063/1.3173827
  2. Neese, F.; Wennmohs, F.; Hansen, A.
     Efficient and accurate local approximations to coupled-electron pair approaches: An attempt to revive the pair natural orbital method
     J. Chem. Phys. 2009 130 , 114108
     doi.org/10.1063/1.3086717
  3. Riplinger, C.; Neese, F.
     An efficient and near linear scaling pair natural orbital based local coupled cluster method
     J. Chem. Phys. 2013 138(3), Art. No. 034106
     doi.org/10.1063/1.4773581
  4. Riplinger, C.; Sandhoefer, B.; Hansen, A.; Neese, F.
     Natural triple excitations in local coupled cluster calculations with pair natural orbitals
     J. Chem. Phys. 2013 139(13), Art. No. 134101
     doi.org/10.1063/1.4821834
  5. Riplinger, C.; Pinski, P.; Becker, U.; Valeev, E.F.; Neese, F.
     Sparse maps-A systematic infrastructure for reduced-scaling electronic structure methods. II. Linear scaling domain based pair natural orbital coupled cluster theory
     J. Chem. Phys. 2016 144 , 
     doi.org/10.1063/1.4939030
  6. Bistoni, G.; Riplinger, C.; Minenkov, Y.; Cavallo, L.; Auer, A.A.; Neese, F.
     Treating Subvalence Correlation Effects in Domain Based Pair Natural Orbital Coupled Cluster Calculations: An Out-of-the-Box Approach
     J. Theo. Comp. Chem. 2017 13 , 3220-3227
     doi.org/10.1021/acs.jctc.7b00352
  7. Neese, F.
     The SHARK Integral Generation and Digestion System
     J. Comp. Chem. 2022 44(3), 381
     doi.org/10.1002/jcc.26942

List of suggested additional citations. These are papers that are important in the 'surrounding' of 
of this run, or papers that preceded the highly important papers. If you like your results we are grateful for a citation.

  1. Neese, F.
     The ORCA program system
     WIRES Comput. Molec. Sci. 2012 2(1), 73-78
     doi.org/10.1002/wcms.81
  2. Neese, F.
     Software update: the ORCA program system, version 4.0
     WIRES Comput. Molec. Sci. 2018 8(1), 1-6
     doi.org/10.1002/wcms.1327
  3. Neese, F.; Wennmohs, F.; Becker, U.; Riplinger, C.
     The ORCA quantum chemistry program package
     J. Chem. Phys. 2020 152(22), 224108
     doi.org/10.1063/5.0004608
  4. Neese, F.
     Software update: The ORCA program system—Version 5.0
     WIRES Comput. Molec. Sci. 2022 12(1), e1606
     doi.org/10.1002/wcms.1606

List of optional additional citations

  1. Neese, F.
     Approximate second-order SCF convergence for spin unrestricted wavefunctions
     Chem. Phys. Lett. 2000 325(1-3), 93-98
     doi.org/10.1016/s0009-2614(00)00662-x

Timings for individual modules:

Sum of individual times          ...     5422.686 sec (=  90.378 min)
Startup calculation              ...        1.122 sec (=   0.019 min)   0.0 %
SCF iterations                   ...       30.779 sec (=   0.513 min)   0.6 %
Property integrals               ...        0.298 sec (=   0.005 min)   0.0 %
Property calculations            ...        0.299 sec (=   0.005 min)   0.0 %
MDCI module                      ...     5390.188 sec (=  89.836 min)  99.4 %
                             ****ORCA TERMINATED NORMALLY****
TOTAL RUN TIME: 0 days 1 hours 30 minutes 24 seconds 28 msec
