
                                 *****************
                                 * O   R   C   A *
                                 *****************

                                            #,                                       
                                            ###                                      
                                            ####                                     
                                            #####                                    
                                            ######                                   
                                           ########,                                 
                                     ,,################,,,,,                         
                               ,,#################################,,                 
                          ,,##########################################,,             
                       ,#########################################, ''#####,          
                    ,#############################################,,   '####,        
                  ,##################################################,,,,####,       
                ,###########''''           ''''###############################       
              ,#####''   ,,,,##########,,,,          '''####'''          '####       
            ,##' ,,,,###########################,,,                        '##       
           ' ,,###''''                  '''############,,,                           
         ,,##''                                '''############,,,,        ,,,,,,###''
      ,#''                                            '''#######################'''  
     '                                                          ''''####''''         
             ,#######,   #######,   ,#######,      ##                                
            ,#'     '#,  ##    ##  ,#'     '#,    #''#        ,####,    ,#,          
            ##       ##  ##   ,#'  ##            #'  '#       #'       ,# #          
            ##       ##  #######   ##           ,######,      #####,      #          
            '#,     ,#'  ##    ##  '#,     ,#' ,#      #,     #,   #      #          
             '#######'   ##     ##  '#######'  #'      '#     '####' #    #          



                #########################################################
                #                        -***-                          #
                #          Department of theory and spectroscopy        #
                #                                                       #
                #                      Frank Neese                      #
                #                                                       #
                #     Directorship, Architecture, Infrastructure        #
                #                    SHARK, DRIVERS                     #
                #        Core code/Algorithms in most modules           #
                #                                                       #
                #        Max Planck Institute fuer Kohlenforschung      #
                #                Kaiser Wilhelm Platz 1                 #
                #                 D-45470 Muelheim/Ruhr                 #
                #                      Germany                          #
                #                                                       #
                #                  All rights reserved                  #
                #                        -***-                          #
                #########################################################


                         Program Version 6.1.1  -  RELEASE   -


 With contributions from (in alphabetic order):
[Max-Planck-Institut fuer Kohlenforschung]                               
  Daniel Aravena         : Magnetic Suceptibility                        
  Michael Atanasov       : Ab Initio Ligand Field Theory (pilot matlab implementation)
  Alexander A. Auer      : GIAO ZORA, VPT2 properties, NMR spectrum      
  Ute Becker             : All parallelization in ORCA, NUMFREQ, NUMCALC 
  Giovanni Bistoni       : ED, misc. LED, open-shell LED, HFLD           
  Dmytro Bykov           : pre 5.0 version of the SCF Hessian            
  Marcos Casanova-Páez   : Triplet and SCS-CIS(D). UHF-(DLPNO)-IP/EA/STEOM-CCSD. UHF-CVS-IP/STEOM-CCSD   
  Vijay G. Chilkuri      : MRCI spin determinant printing, contributions to CSF-ICE 
  Pauline Colinet        : FMM embedding                                 
  Dipayan Datta          : RHF DLPNO-CCSD density                        
  Achintya Kumar Dutta   : EOM-CC, STEOM-CC                              
  Nicolas Foglia         : Exact transition moments, OPA infrastructure, MCD improvements    
  Dmitry Ganyushin       : Spin-Orbit,Spin-Spin,Magnetic field MRCI      
  Miquel Garcia-Rates    : C-PCM and meta-GGA Hessian, CCSD/C-PCM, Gaussian charge scheme 
  Tiago L. C. Gouveia    : GS-ROHF, GS-ROCIS                             
  Yang Guo               : DLPNO-NEVPT2, F12-NEVPT2, CIM, IAO-localization        
  Andreas Hansen         : Spin unrestricted coupled pair/coupled cluster methods 
  Ingolf Harden          : AUTO-CI MPn and infrastructure                
  Benjamin Helmich-Paris : MC-RPA, TRAH-(SCF,CASSCF), AVAS, COSX integrals, SCF dyn. polar., MC-PDFT, srDFT 
  Lee Huntington         : MR-EOM, pCC                                   
  Robert Izsak           : Overlap fitted RIJCOSX, COSX-SCS-MP3, EOM     
  Riya Kayal             : Wick's Theorem for AUTO-CI, AUTO-CI UHF-CCSDT 
  Emily Kempfer          : AUTO-CI RHF CISDT and CCSDT, approximate NEVPT4
  Christian Kollmar      : KDIIS, OOCD, Brueckner-CCSD(T), CCSD density, CASPT2, CASPT2-K, improved NEVPT2 
  Axel Koslowski         : Symmetry handling                             
  Simone Kossmann        : meta-GGA functionals, TD-DFT gradient, OOMP2, (MP2 Hessian; deprecated post 5.0) 
  Lucas Lang             : DCDCAS, Hyperfine gauge corrections, ICE-SOC+SSC
  Marvin Lechner         : AUTO-CI (C++ implementation), FIC-MRCC        
  Spencer Leger          : CASSCF response                               
  Dagmar Lenk            : GEPOL surface, SMD, ORCA-2-JSON               
  Dimitrios Liakos       : Extrapolation schemes; Compound Job, Property file
  Dimitrios Manganas     : Further ROCIS development; embedding schemes. LFT, Crystal Embedding 
  Dimitrios Pantazis     : SARC Basis sets                               
  Anastasios Papadopoulos: AUTO-CI, single reference methods and gradients 
  Taras Petrenko         : pre 6.0 DFT Hessian and TD-DFT gradient,  ECA, NRVS 
  Petra Pikulova         : Analytic Raman intensities                    
  Peter Pinski           : DLPNO-MP2, DLPNO-MP2 Gradient                 
  Shashank Vittal Rao    : ES-AILFT, MagRelax                            
  Christoph Reimann      : Effective Core Potentials                     
  Marius Retegan         : Local ZFS, SOC                                
  Christoph Riplinger    : Optimizer, TS searches, QM/MM, DLPNO-CCSD(T), (RO)-DLPNO pert. Triples 
  Michael Roemelt        : Original ROCIS implementation, recursive CI coupling coefficients
  Masaaki Saitow         : Open-shell DLPNO-CCSD energy and density      
  Barbara Sandhoefer     : DKH picture change effects                    
  Yorick L. A. Schmerwitz: GMF and freeze-and-release deltaSCF, NEB S-IDPP initial path                    
  Kantharuban Sivalingam : CASSCF convergence/infrastructure, NEVPT2, NEVPT3, NEVPT4(SD), FIC-MRCI and CEPA variants
  Bernardo de Souza      : ESD, SOC TD-DFT                               
  Georgi L. Stoychev     : AutoAux, RI-MP2 NMR, DLPNO-MP2 response, X2C  
  Van Anh Tran           : RI-MP2 g-tensors                              
  Willem Van den Heuvel  : Paramagnetic NMR                              
  Zikuan Wang            : NOTCH, Electric field optimization            
  Frank Wennmohs         : Technical directorship and infrastructure     
  Hang Xu                : AUTO-CI-Response properties                   
                                                                         
[FACCTs GmbH]                                                            
  Markus Bursch, Nicolas Foglia, Miquel Garcia-Rates, Ingolf Harden, Hagen Neugebauer, Anastasios Papadopoulos, 
  Christoph Riplinger, Bernardo de Souza, Georgi L. Stoychev                                                    
                                                                 
  APM, various basis sets, CI-OPT, improved COSX, DLPNO-Multilevel,           
  DOCKER, DRACO, updates on ESD, Fragmentator, GOAT, IRC, LR-CPCM, L-BFGS, MBIS, meta-GGA TD-DFT gradient, ML-optimized integration grids, 
  MM, NACMEs, nearIR, NEB, NEB-TS, NL-DFT gradient (VV10), 2- and 3-layer-ONIOM, interface openCOSMO-RS, QMMM,   
  Crystal-QMMM, RESP, rigid body optimization, SF, symmetry and pop. for TD-DFT, various functionals, SOLVATOR                                   
                                                                         
[Other institutions]                                                     
  V. Asgeirsson          : NEB                                           
  Christoph Bannwarth    : sTDA-DFT, sTD-DFT, PBEh-3c, B97-3c, D3        
  Giovanni Bistoni       : ETS/NOCV, ADLD/ADEX, COVALED                  
  Martin Brehm           : Molecular dynamics                            
  Ronald Cardenas        : ETS/NOCV                                      
  Martina Colucci        : COVALED                                       
  Sebastian Ehlert       : rSCAN, r2SCAN, r2SCAN-3c, D4, dhf basis sets  
  Marvin Friede          : D4 for Fr, Ra, Ac-Lr                          
  Lars Goerigk           : TD-DFT with DH, B97 family of functionals     
  Stefan Grimme          : VdW corrections, initial TS optimization, DFT functionals, gCP, sTDA/sTD-DF 
  Waldemar Hujo          : DFT-NL                                        
  H. Jonsson             : NEB                                           
  Holger Kruse           : gCP                                           
  Marcel Mueller         : wB97X-3c, vDZP basis set                      
  Hagen Neugebauer       : wr2SCAN, Native XTB                           
  Gianluca Regni         : ADLD/ADEX                                     
  Tobias Risthaus        : pre 6.0 range-separated hybrid DFT and stability analysis
  Lukas Wittmann         : regularized MP2, r2SCAN double-hybrids, wr2SCAN        
                                                                         
We gratefully acknowledge several colleagues who have allowed us to      
interface, adapt or use parts of their codes:                            
  Ed Valeev, F. Pavosevic, A. Kumar             : LibInt (2-el integral package), F12 methods 
  Garnet Chan, S. Sharma, J. Yang, R. Olivares  : DMRG                   
  Ulf Ekstrom                                   : XCFun DFT Library      
  Mihaly Kallay                                 : mrcc  (arbitrary order and MRCC methods)
  Frank Weinhold                                : gennbo (NPA and NBO analysis)           
  Simon Mueller                                 : openCOSMO-RS                            
  Christopher J. Cramer and Donald G. Truhlar   : smd solvation model                     
  S Lehtola, MJT Oliveira, MAL Marques          : LibXC Library                           
  Liviu Ungur et al                             : ANISO software                          


 Your calculation uses the libint2 library for the computation of 2-el integrals
 For citations please refer to: http://libint.valeyev.net

 Your ORCA version has been built with support for libXC version: 7.0.0
 For citations please refer to: https://libxc.gitlab.io

 This ORCA versions uses:
   CBLAS   interface :  Fast vector & matrix operations
   LAPACKE interface :  Fast linear algebra routines
   Shared memory     :  Shared parallel matrices


  ***********************************
  * Starting time: Mon Mar 30 17:48:01 2026
  * Host name:     DESKTOP-E59RH2R
  * Process ID:    84580
  * Working dir.:  C:\Users\gnome\Desktop\Vitya_Diplom\Vitya_DiplomB12\05_spin_comparison\b12_hexagonal_prism\mult_1\opt
  ***********************************

NOTE: MaxCore=1500 MB was set to SCF,MP2,MDCI,CIPSI,MRCI,RASCI and CIS
      => If you want to overwrite this, your respective input block should be placed after the MaxCore statement
Your calculation utilizes the geometrical counterpoise correction gCP
Please cite in your paper:
H.Kruse, S. Grimme J.Chem.Phys., 136, (2012), 154101 
   

Your calculation utilizes the atom-pairwise dispersion correction
based on EEQ partial charges (D4)


================================================================================

----- Orbital basis set information -----
Your calculation utilizes the basis: def2-mTZVPP
   Stefan Grimme, Andreas Hansen, Sebastian Ehlert, and Jan-Michael Mewes 
   J. Chem. Phys. 154, 064103 (2021). DOI: 10.1063/5.0040021

----- AuxJ basis set information -----
Your calculation utilizes the basis: def2-mTZVPP/J
   Stefan Grimme, Andreas Hansen, Sebastian Ehlert, and Jan-Michael Mewes 
   J. Chem. Phys. 154, 000000 (2021). DOI: 10.1063/5.0040021

================================================================================
                                        WARNINGS
                       Please study these warnings very carefully!
================================================================================



WARNING: SCAN, rSCAN, or r2SCAN functional requested.
  ===> : libXC variant has now been activated.



WARNING: Geometry Optimization
  ===> : Switching off AutoStart
         For restart on a previous wavefunction, please use MOREAD

================================================================================
                                       INPUT FILE
================================================================================
NAME = b12_hexagonal_prism_m1_spinopt.inp
|  1> !r2scan-3c
|  2> !tightopt
|  3> !tightscf
|  4> 
|  5> %output
|  6>     jsonpropfile true
|  7>     jsongbwfile true
|  8> end
|  9> 
| 10> %maxcore 1500
| 11> %pal
| 12>   nprocs 8
| 13> end
| 14> 
| 15> * xyz 0 1
| 16> B             1.9301996024580399             0.5863756100549200             0.5914869941246500
| 17> B             0.5793009173024000             1.0891256384135299             1.0906522757569499
| 18> B            -0.9802515399658500             0.7802218754564600             0.7776110567997300
| 19> B            -1.9296762559171501            -0.5862157376614801             0.5925268712397200
| 20> B            -0.5785159118419100            -1.0889884976686901             1.0913572253643000
| 21> B             0.9807590209072700            -0.7801643868435000             0.7767253987831100
| 22> B             1.9258864733159200            -0.5983167664020400            -0.5926512068307001
| 23> B             0.9848940629915101             0.7739519743266600            -0.7770073049671500
| 24> B            -0.5727248782637900             1.0921657197385599            -1.0913361649405000
| 25> B            -1.9264768994946000             0.5984055665238700            -0.5914298300749600
| 26> B            -0.9853007682228200            -0.7741334981562100            -0.7763883161752800
| 27> B             0.5719061767309900            -1.0924274977820601            -1.0915469990798801
| 28> *
| 29> 
| 30>                          ****END OF INPUT****
================================================================================

                       *****************************
                       * Geometry Optimization Run *
                       *****************************

Geometry optimization settings:
Update method            Update   .... BFGS
Choice of coordinates    CoordSys .... (2022) Redundant Internals
Initial Hessian          InHess   .... Almloef's Model
Max. no of cycles        MaxIter  .... 50

Convergence Tolerances:
Energy Change            TolE     ....  1.0000e-06 Eh
Max. Gradient            TolMAXG  ....  1.0000e-04 Eh/bohr
RMS Gradient             TolRMSG  ....  3.0000e-05 Eh/bohr
Max. Displacement        TolMAXD  ....  1.0000e-03 bohr
RMS Displacement         TolRMSD  ....  6.0000e-04 bohr
Strict Convergence                .... False

------------------------------------------------------------------------------
                        ORCA OPTIMIZATION COORDINATE SETUP
------------------------------------------------------------------------------

The optimization will be done in redundant internal coordinates (2022)
Making redundant internal coordinates   ...  (2022 redundants) done
Evaluating the initial hessian          ...  (Almloef) done
Evaluating the coordinates              ...  done
Calculating the B-matrix                .... done
Calculating the G-matrix                .... done
The number of degrees of freedom        ....  290

    -----------------------------------------------------------------
                    Redundant Internal Coordinates


    -----------------------------------------------------------------
         Definition                    Initial Value    Approx d2E/dq
    -----------------------------------------------------------------
      1. B(B   1,B   0)                  1.5254         0.509740   
      2. B(B   2,B   1)                  1.6204         0.359602   
      3. B(B   3,B   2)                  1.6742         0.295130   
      4. B(B   4,B   3)                  1.5255         0.509497   
      5. B(B   4,B   2)                  1.9375         0.112183   
      6. B(B   5,B   1)                  1.9375         0.112163   
      7. B(B   5,B   0)                  1.6743         0.295011   
      8. B(B   5,B   4)                  1.6204         0.359568   
      9. B(B   6,B   5)                  1.6738         0.295547   
     10. B(B   6,B   0)                  1.6750         0.294198   
     11. B(B   7,B   6)                  1.6741         0.295207   
     12. B(B   7,B   1)                  1.9370         0.112373   
     13. B(B   7,B   0)                  1.6738         0.295535   
     14. B(B   8,B   7)                  1.6206         0.359350   
     15. B(B   8,B   2)                  1.9381         0.111909   
     16. B(B   9,B   8)                  1.5252         0.510047   
     17. B(B   9,B   3)                  1.6748         0.294394   
     18. B(B   9,B   2)                  1.6741         0.295176   
     19. B(B  10,B   9)                  1.6745         0.294783   
     20. B(B  10,B   8)                  1.9371         0.112320   
     21. B(B  10,B   4)                  1.9373         0.112257   
     22. B(B  10,B   3)                  1.6736         0.295690   
     23. B(B  11,B  10)                  1.6203         0.359639   
     24. B(B  11,B   7)                  1.9372         0.112279   
     25. B(B  11,B   6)                  1.5252         0.510075   
     26. B(B  11,B   5)                  1.9378         0.112041   
     27. A(B   1,B   0,B   5)           74.3713         0.380154   
     28. A(B   6,B   0,B   7)           59.9875         0.346199   
     29. A(B   1,B   0,B   6)          117.5266         0.379972   
     30. A(B   5,B   0,B   6)           59.9656         0.346095   
     31. A(B   1,B   0,B   7)           74.3626         0.380271   
     32. A(B   5,B   0,B   7)           82.0481         0.346359   
     33. A(B   0,B   1,B   5)           56.3238         0.322918   
     34. A(B   0,B   1,B   2)          136.5779         0.393498   
     35. A(B   5,B   1,B   7)           69.1089         0.255123   
     36. A(B   2,B   1,B   5)           89.0946         0.305156   
     37. A(B   0,B   1,B   7)           56.3179         0.323017   
     38. A(B   2,B   1,B   7)           89.0969         0.305248   
     39. A(B   3,B   2,B   8)           98.2796         0.295597   
     40. A(B   3,B   2,B   9)           60.0277         0.346312   
     41. A(B   3,B   2,B   4)           49.3115         0.295711   
     42. A(B   1,B   2,B   4)           87.3100         0.305165   
     43. A(B   4,B   2,B   9)           98.3283         0.295718   
     44. A(B   4,B   2,B   8)          105.5356         0.254975   
     45. A(B   1,B   2,B   3)          136.2838         0.358071   
     46. A(B   1,B   2,B   8)           87.3196         0.305045   
     47. A(B   8,B   2,B   9)           49.2884         0.295604   
     48. A(B   1,B   2,B   9)          136.2763         0.358080   
     49. A(B   9,B   3,B  10)           60.0094         0.346268   
     50. A(B   2,B   3,B  10)           82.0720         0.346413   
     51. A(B   4,B   3,B   9)          117.5528         0.379985   
     52. A(B   2,B   3,B   9)           59.9849         0.346157   
     53. A(B   2,B   3,B   4)           74.3691         0.380149   
     54. A(B   4,B   3,B  10)           74.3762         0.380274   
     55. A(B   3,B   4,B  10)           56.3038         0.322937   
     56. A(B   2,B   4,B  10)           69.1170         0.255091   
     57. A(B   3,B   4,B   5)          136.5508         0.393459   
     58. A(B   2,B   4,B   3)           56.3194         0.322902   
     59. A(B   2,B   4,B   5)           89.0956         0.305160   
     60. A(B   5,B   4,B  10)           89.0765         0.305192   
     61. A(B   4,B   5,B   6)          136.2969         0.358151   
     62. A(B   4,B   5,B  11)           87.3326         0.305098   
     63. A(B   1,B   5,B   4)           87.3077         0.305151   
     64. A(B   0,B   5,B   4)          136.2797         0.358040   
     65. A(B   6,B   5,B  11)           49.2974         0.295718   
     66. A(B   1,B   5,B   6)           98.3222         0.295769   
     67. A(B   0,B   5,B   1)           49.3049         0.295684   
     68. A(B   0,B   5,B   6)           60.0395         0.346362   
     69. A(B   1,B   5,B  11)          105.5430         0.255012   
     70. A(B   0,B   5,B  11)           98.3085         0.295633   
     71. A(B   5,B   6,B   7)           82.0539         0.346400   
     72. A(B   0,B   6,B   7)           59.9696         0.346134   
     73. A(B   5,B   6,B  11)           74.4037         0.380317   
     74. A(B   0,B   6,B   5)           59.9949         0.346201   
     75. A(B   7,B   6,B  11)           74.3684         0.380241   
     76. A(B   0,B   6,B  11)          117.5583         0.380016   
     77. A(B   1,B   7,B   6)           98.3311         0.295802   
     78. A(B   0,B   7,B   6)           60.0428         0.346398   
     79. A(B   0,B   7,B   1)           49.3196         0.295854   
     80. A(B   8,B   7,B  11)           87.2936         0.305173   
     81. A(B   6,B   7,B  11)           49.3059         0.295763   
     82. A(B   1,B   7,B  11)          105.5854         0.255162   
     83. A(B   0,B   7,B  11)           98.3479         0.295815   
     84. A(B   6,B   7,B   8)          136.2676         0.358044   
     85. A(B   1,B   7,B   8)           87.3526         0.305213   
     86. A(B   0,B   7,B   8)          136.3378         0.358112   
     87. A(B   9,B   8,B  10)           56.3434         0.323024   
     88. A(B   7,B   8,B  10)           89.0830         0.305190   
     89. A(B   2,B   8,B  10)           69.1066         0.255021   
     90. A(B   7,B   8,B   9)          136.5481         0.393491   
     91. A(B   2,B   8,B   9)           56.3039         0.322830   
     92. A(B   2,B   8,B   7)           89.0521         0.305011   
     93. A(B   3,B   9,B  10)           59.9599         0.346089   
     94. A(B   2,B   9,B  10)           82.0483         0.346244   
     95. A(B   3,B   9,B   8)          117.5396         0.380056   
     96. A(B   2,B   9,B   8)           74.4077         0.380231   
     97. A(B   2,B   9,B   3)           59.9874         0.346167   
     98. A(B   8,B   9,B  10)           74.3520         0.380143   
     99. A(B   4,B  10,B   8)          105.5814         0.255137   
    100. A(B   3,B  10,B   8)           98.3364         0.295857   
    101. A(B   3,B  10,B   4)           49.3200         0.295830   
    102. A(B   9,B  10,B  11)          136.2750         0.358005   
    103. A(B   8,B  10,B  11)           87.3030         0.305230   
    104. A(B   4,B  10,B  11)           87.3519         0.305202   
    105. A(B   3,B  10,B  11)          136.3373         0.358193   
    106. A(B   8,B  10,B   9)           49.3046         0.295713   
    107. A(B   4,B  10,B   9)           98.3226         0.295687   
    108. A(B   3,B  10,B   9)           60.0307         0.346345   
    109. A(B   7,B  11,B  10)           89.0859         0.305212   
    110. A(B   6,B  11,B  10)          136.5417         0.393550   
    111. A(B   5,B  11,B  10)           89.0598         0.305108   
    112. A(B   6,B  11,B   7)           56.3258         0.323008   
    113. A(B   5,B  11,B   7)           69.0982         0.255051   
    114. A(B   5,B  11,B   6)           56.2988         0.322895   
    115. D(B   2,B   1,B   0,B   5)    -42.9718         0.014071   
    116. D(B   2,B   1,B   0,B   6)     -0.0154         0.014071   
    117. D(B   7,B   1,B   0,B   5)    -85.9360         0.014071   
    118. D(B   5,B   1,B   0,B   7)     85.9360         0.014071   
    119. D(B   2,B   1,B   0,B   7)     42.9643         0.014071   
    120. D(B   5,B   1,B   0,B   6)     42.9564         0.014071   
    121. D(B   3,B   2,B   1,B   5)     11.7835         0.010000   
    122. D(B   8,B   2,B   1,B   0)    -52.8389         0.010000   
    123. D(B   4,B   2,B   1,B   7)     87.4178         0.010000   
    124. D(B   3,B   2,B   1,B   7)     80.9022         0.010000   
    125. D(B   4,B   2,B   1,B   0)     52.8626         0.010000   
    126. D(B   4,B   2,B   1,B   5)     18.2991         0.010000   
    127. D(B   3,B   2,B   1,B   0)     46.3470         0.010000   
    128. D(B   9,B   3,B   2,B   4)   -135.7543         0.010000   
    129. D(B   4,B   3,B   2,B   8)    103.4047         0.010000   
    130. D(B   9,B   3,B   2,B   1)   -127.1573         0.010000   
    131. D(B   4,B   3,B   2,B   9)    135.7543         0.010000   
    132. D(B  10,B   3,B   2,B   1)    -67.3159         0.010000   
    133. D(B   9,B   3,B   2,B   8)    -32.3496         0.010000   
    134. D(B   4,B   3,B   2,B   1)      8.5970         0.010000   
    135. D(B   5,B   4,B   3,B   2)    -43.0214         0.014058   
    136. D(B   5,B   4,B   2,B   9)    114.3611         0.010000   
    137. D(B   2,B   4,B   3,B   9)     42.9573         0.014058   
    138. D(B  10,B   4,B   3,B   2)    -85.9585         0.014058   
    139. D(B   5,B   4,B   2,B   3)    152.0134         0.010000   
    140. D(B   3,B   4,B   2,B   9)    -37.6523         0.010000   
    141. D(B   3,B   4,B   2,B   8)    -87.5985         0.010000   
    142. D(B   5,B   4,B   3,B   9)     -0.0641         0.014058   
    143. D(B   3,B   4,B   2,B   1)   -174.0639         0.010000   
    144. D(B   2,B   4,B   3,B  10)     85.9585         0.014058   
    145. D(B   5,B   4,B   2,B   8)     64.4149         0.010000   
    146. D(B   5,B   4,B   2,B   1)    -22.0504         0.010000   
    147. D(B   5,B   4,B   3,B  10)     42.9372         0.014058   
    148. D(B   6,B   5,B   4,B   2)    -80.9381         0.010000   
    149. D(B   1,B   5,B   4,B  10)     87.4259         0.010000   
    150. D(B   1,B   5,B   4,B   3)     52.8970         0.010000   
    151. D(B   0,B   5,B   4,B   2)     11.8315         0.010000   
    152. D(B   6,B   5,B   1,B   0)    -37.6752         0.010000   
    153. D(B   0,B   5,B   4,B  10)     80.9586         0.010000   
    154. D(B   4,B   5,B   1,B   2)    -22.0499         0.010000   
    155. D(B   1,B   5,B   0,B   7)    -75.9045         0.010000   
    156. D(B   4,B   5,B   1,B   0)   -174.1068         0.010000   
    157. D(B   0,B   5,B   4,B   3)     46.4297         0.010000   
    158. D(B   4,B   5,B   1,B   7)   -111.4288         0.010000   
    159. D(B   1,B   5,B   4,B   2)     18.2988         0.010000   
    160. D(B   6,B   5,B   1,B   2)    114.3816         0.010000   
    161. D(B   0,B   5,B   1,B   2)    152.0569         0.010000   
    162. D(B   4,B   5,B   0,B   1)      8.5339         0.010000   
    163. D(B   6,B   5,B   0,B   7)     59.8266         0.010000   
    164. D(B   0,B   5,B   1,B   7)     62.6780         0.010000   
    165. D(B   4,B   5,B   0,B   7)    -67.3706         0.010000   
    166. D(B   6,B   5,B   0,B   1)    135.7311         0.010000   
    167. D(B   1,B   5,B   0,B   6)   -135.7311         0.010000   
    168. D(B   4,B   5,B   0,B   6)   -127.1972         0.010000   
    169. D(B   0,B   6,B   5,B   4)    127.1736         0.010000   
    170. D(B   0,B   6,B   5,B   1)     32.3351         0.010000   
    171. D(B  11,B   6,B   0,B   5)     49.3409         0.010000   
    172. D(B   5,B   6,B   0,B   7)    -98.5934         0.010000   
    173. D(B  11,B   6,B   0,B   1)      0.0500         0.010000   
    174. D(B   5,B   6,B   0,B   1)    -49.2910         0.010000   
    175. D(B   7,B   6,B   0,B   5)     98.5934         0.010000   
    176. D(B   0,B   6,B   5,B  11)    135.7141         0.010000   
    177. D(B   7,B   6,B   0,B   1)     49.3024         0.010000   
    178. D(B   7,B   6,B   5,B  11)     75.9067         0.010000   
    179. D(B   7,B   6,B   5,B   4)     67.3662         0.010000   
    180. D(B   7,B   6,B   5,B   1)    -27.4724         0.010000   
    181. D(B   7,B   6,B   5,B   0)    -59.8074         0.010000   
    182. D(B   8,B   7,B   6,B   5)    -67.4260         0.010000   
    183. D(B   6,B   7,B   1,B   2)   -114.3739         0.010000   
    184. D(B   1,B   7,B   6,B   0)    -32.3517         0.010000   
    185. D(B   0,B   7,B   6,B   5)     59.8325         0.010000   
    186. D(B   8,B   7,B   1,B   2)     22.0360         0.010000   
    187. D(B   8,B   7,B   1,B   0)    174.0972         0.010000   
    188. D(B   1,B   7,B   6,B  11)    103.4270         0.010000   
    189. D(B   8,B   7,B   6,B   0)   -127.2585         0.010000   
    190. D(B   1,B   7,B   6,B   5)     27.4809         0.010000   
    191. D(B   6,B   7,B   1,B   0)     37.6873         0.010000   
    192. D(B   0,B   7,B   1,B   5)    -62.6856         0.010000   
    193. D(B   0,B   7,B   1,B   2)   -152.0612         0.010000   
    194. D(B   8,B   7,B   0,B   1)     -8.5573         0.010000   
    195. D(B   6,B   7,B   0,B   1)   -135.7191         0.010000   
    196. D(B   1,B   7,B   0,B   6)    135.7191         0.010000   
    197. D(B   1,B   7,B   0,B   5)     75.9143         0.010000   
    198. D(B   6,B   7,B   0,B   5)    -59.8048         0.010000   
    199. D(B   6,B   7,B   1,B   5)    -24.9984         0.010000   
    200. D(B   8,B   7,B   0,B   6)    127.1618         0.010000   
    201. D(B   0,B   7,B   6,B  11)    135.7786         0.010000   
    202. D(B   8,B   7,B   0,B   5)     67.3570         0.010000   
    203. D(B   9,B   8,B   7,B   6)     46.5248         0.010000   
    204. D(B   9,B   8,B   7,B   1)    -52.7686         0.010000   
    205. D(B   9,B   8,B   7,B   0)    -46.2825         0.010000   
    206. D(B   2,B   8,B   7,B  11)     87.4692         0.010000   
    207. D(B   2,B   8,B   7,B   6)     81.0121         0.010000   
    208. D(B   2,B   8,B   7,B   1)    -18.2812         0.010000   
    209. D(B   2,B   8,B   7,B   0)    -11.7951         0.010000   
    210. D(B   9,B   8,B   2,B   4)     87.6573         0.010000   
    211. D(B   9,B   8,B   2,B   3)     37.6988         0.010000   
    212. D(B   9,B   8,B   2,B   1)    174.1154         0.010000   
    213. D(B   7,B   8,B   2,B   9)   -152.0919         0.010000   
    214. D(B   7,B   8,B   2,B   4)    -64.4346         0.010000   
    215. D(B   7,B   8,B   2,B   3)   -114.3931         0.010000   
    216. D(B   7,B   8,B   2,B   1)     22.0235         0.010000   
    217. D(B  10,B   9,B   8,B   2)    -85.9295         0.014087   
    218. D(B   3,B   9,B   8,B  10)     42.9146         0.014087   
    219. D(B   3,B   9,B   8,B   2)    -43.0149         0.014087   
    220. D(B   2,B   9,B   8,B  10)     85.9295         0.014087   
    221. D(B   2,B   9,B   8,B   7)     42.8805         0.014087   
    222. D(B  10,B   9,B   3,B   2)     98.5976         0.010000   
    223. D(B   8,B   9,B   3,B  10)    -49.2364         0.010000   
    224. D(B   8,B   9,B   3,B   4)      0.0828         0.010000   
    225. D(B   8,B   9,B   3,B   2)     49.3612         0.010000   
    226. D(B   2,B   9,B   3,B  10)    -98.5976         0.010000   
    227. D(B   2,B   9,B   3,B   4)    -49.2784         0.010000   
    228. D(B  10,B   9,B   2,B   1)     67.3698         0.010000   
    229. D(B   8,B   9,B   2,B   4)   -103.3646         0.010000   
    230. D(B   8,B   9,B   2,B   3)   -135.6887         0.010000   
    231. D(B   8,B   9,B   2,B   1)     -8.5210         0.010000   
    232. D(B   3,B   9,B   8,B   7)     -0.1344         0.014087   
    233. D(B   3,B   9,B   2,B   8)    135.6887         0.010000   
    234. D(B   3,B   9,B   2,B   4)     32.3241         0.010000   
    235. D(B   3,B   9,B   2,B   1)    127.1677         0.010000   
    236. D(B   9,B  10,B   3,B   2)    -59.8171         0.010000   
    237. D(B   8,B  10,B   3,B   9)     32.3056         0.010000   
    238. D(B   8,B  10,B   3,B   4)   -103.4165         0.010000   
    239. D(B   8,B  10,B   3,B   2)    -27.5115         0.010000   
    240. D(B   4,B  10,B   3,B   9)    135.7221         0.010000   
    241. D(B   4,B  10,B   3,B   2)     75.9049         0.010000   
    242. D(B   8,B  10,B   9,B   3)   -135.7782         0.010000   
    243. D(B   8,B  10,B   9,B   2)    -75.9529         0.010000   
    244. D(B   4,B  10,B   9,B   8)    103.4290         0.010000   
    245. D(B   4,B  10,B   9,B   3)    -32.3492         0.010000   
    246. D(B   4,B  10,B   9,B   2)     27.4761         0.010000   
    247. D(B   3,B  10,B   9,B   8)    135.7782         0.010000   
    248. D(B   9,B  10,B   8,B   2)     62.6607         0.010000   
    249. D(B   4,B  10,B   8,B   9)    -87.6147         0.010000   
    250. D(B   4,B  10,B   8,B   7)     64.3815         0.010000   
    251. D(B   4,B  10,B   8,B   2)    -24.9540         0.010000   
    252. D(B   3,B  10,B   8,B   9)    -37.6357         0.010000   
    253. D(B   3,B  10,B   8,B   7)    114.3605         0.010000   
    254. D(B   3,B  10,B   8,B   2)     25.0251         0.010000   
    255. D(B   9,B  10,B   4,B   3)     37.6786         0.010000   
    256. D(B   3,B  10,B   9,B   2)     59.8253         0.010000   
    257. D(B   9,B  10,B   4,B   2)    -24.9984         0.010000   
    258. D(B   8,B  10,B   4,B   5)    -64.4230         0.010000   
    259. D(B   8,B  10,B   4,B   3)     87.6383         0.010000   
    260. D(B   8,B  10,B   4,B   2)     24.9613         0.010000   
    261. D(B   3,B  10,B   4,B   5)   -152.0613         0.010000   
    262. D(B   3,B  10,B   4,B   2)    -62.6770         0.010000   
    263. D(B   9,B  10,B   3,B   4)   -135.7221         0.010000   
    264. D(B   6,B  11,B  10,B   8)     52.9621         0.010000   
    265. D(B   6,B  11,B  10,B   3)    -46.2955         0.010000   
    266. D(B   5,B  11,B  10,B   9)     80.9985         0.010000   
    267. D(B   5,B  11,B  10,B   8)     87.4631         0.010000   
    268. D(B   5,B  11,B  10,B   3)    -11.7945         0.010000   
    269. D(B   6,B  11,B   7,B   8)   -174.1149         0.010000   
    270. D(B   6,B  11,B   7,B   1)    -87.6231         0.010000   
    271. D(B   5,B  11,B   7,B   8)   -111.4541         0.010000   
    272. D(B   5,B  11,B   7,B   6)     62.6608         0.010000   
    273. D(B   5,B  11,B   7,B   1)    -24.9623         0.010000   
    274. D(B   5,B  11,B   7,B   0)     25.0188         0.010000   
    275. D(B  10,B  11,B   6,B   5)     42.9021         0.014089   
    276. D(B  10,B  11,B   6,B   0)     -0.1016         0.014089   
    277. D(B   7,B  11,B   6,B   5)     85.9322         0.014089   
    278. D(B   7,B  11,B   6,B   0)     42.9285         0.014089   
    279. D(B   5,B  11,B   6,B   7)    -85.9322         0.014089   
    280. D(B   6,B  11,B   7,B   0)    -37.6420         0.010000   
    281. D(B   5,B  11,B   6,B   0)    -43.0037         0.014089   
    282. D(B   7,B  11,B   5,B   6)    -62.6956         0.010000   
    283. D(B   7,B  11,B   5,B   4)    111.4086         0.010000   
    284. D(B   5,B  11,B  10,B   4)    -18.2828         0.010000   
    285. D(B   7,B  11,B   5,B   1)     24.9499         0.010000   
    286. D(B   7,B  11,B   5,B   0)    -25.0084         0.010000   
    287. D(B   6,B  11,B   5,B   4)    174.1042         0.010000   
    288. D(B   6,B  11,B  10,B   4)    -52.7838         0.010000   
    289. D(B   6,B  11,B   5,B   1)     87.6454         0.010000   
    290. D(B   6,B  11,B   5,B   0)     37.6871         0.010000   
    -----------------------------------------------------------------

Number of atoms                         .... 12
Number of degrees of freedom            .... 290


         *************************************************************
         *                GEOMETRY OPTIMIZATION CYCLE   1            *
         *************************************************************
---------------------------------
CARTESIAN COORDINATES (ANGSTROEM)
---------------------------------
  B      1.930200    0.586376    0.591487
  B      0.579301    1.089126    1.090652
  B     -0.980252    0.780222    0.777611
  B     -1.929676   -0.586216    0.592527
  B     -0.578516   -1.088988    1.091357
  B      0.980759   -0.780164    0.776725
  B      1.925886   -0.598317   -0.592651
  B      0.984894    0.773952   -0.777007
  B     -0.572725    1.092166   -1.091336
  B     -1.926477    0.598406   -0.591430
  B     -0.985301   -0.774133   -0.776388
  B      0.571906   -1.092427   -1.091547

----------------------------
CARTESIAN COORDINATES (A.U.)
----------------------------
  NO LB      ZA    FRAG     MASS         X           Y           Z
   0 B     5.0000    0    10.810    3.647549    1.108089    1.117748
   1 B     5.0000    0    10.810    1.094720    2.058149    2.061034
   2 B     5.0000    0    10.810   -1.852407    1.474406    1.469472
   3 B     5.0000    0    10.810   -3.646560   -1.107787    1.119714
   4 B     5.0000    0    10.810   -1.093237   -2.057890    2.062366
   5 B     5.0000    0    10.810    1.853366   -1.474297    1.467798
   6 B     5.0000    0    10.810    3.639398   -1.130655   -1.119948
   7 B     5.0000    0    10.810    1.861180    1.462557   -1.468331
   8 B     5.0000    0    10.810   -1.082293    2.063894   -2.062326
   9 B     5.0000    0    10.810   -3.640514    1.130823   -1.117640
  10 B     5.0000    0    10.810   -1.861949   -1.462900   -1.467161
  11 B     5.0000    0    10.810    1.080746   -2.064389   -2.062725

--------------------------------
INTERNAL COORDINATES (ANGSTROEM)
--------------------------------
 B      0   0   0     0.000000000000     0.00000000     0.00000000
 B      1   0   0     1.525401857530     0.00000000     0.00000000
 B      2   1   0     1.620376563181   136.57785925     0.00000000
 B      3   2   1     1.674161042895   136.28379418    46.34703246
 B      4   3   2     1.525531528944    74.36911927     8.59695996
 B      5   4   3     1.620402367816   136.55076574   316.97861477
 B      6   5   4     1.673776193629   136.29685118   313.66006702
 B      1   2   3     1.673787352690    74.36258873    42.96425139
 B      8   1   2     1.620567612332   136.33775622   351.44271197
 B      9   8   1     1.525237675750   136.54813823   313.71752188
 B      4   3   2     1.673644806045    82.07196168   292.68413329
 B      7   6   5     1.525222957449    74.40372720   351.45947592

---------------------------
INTERNAL COORDINATES (A.U.)
---------------------------
 B      0   0   0     0.000000000000     0.00000000     0.00000000
 B      1   0   0     2.882591754907     0.00000000     0.00000000
 B      2   1   0     3.062067938237   136.57785925     0.00000000
 B      3   2   1     3.163705875151   136.28379418    46.34703246
 B      4   3   2     2.882836798367    74.36911927     8.59695996
 B      5   4   3     3.062116701930   136.55076574   316.97861477
 B      6   5   4     3.162978615436   136.29685118   313.66006702
 B      1   2   3     3.162999703006    74.36258873    42.96425139
 B      8   1   2     3.062428968810   136.33775622   351.44271197
 B      9   8   1     2.882281496306   136.54813823   313.71752188
 B      4   3   2     3.162730328886    82.07196168   292.68413329
 B      7   6   5     2.882253682748    74.40372720   351.45947592

---------------------
BASIS SET INFORMATION
---------------------
There are 1 groups of distinct atoms

 Group   1 Type B   : 11s6p1d contracted to 5s3p1d pattern {62111/411/1}

Atom   0B    basis set group =>   1
Atom   1B    basis set group =>   1
Atom   2B    basis set group =>   1
Atom   3B    basis set group =>   1
Atom   4B    basis set group =>   1
Atom   5B    basis set group =>   1
Atom   6B    basis set group =>   1
Atom   7B    basis set group =>   1
Atom   8B    basis set group =>   1
Atom   9B    basis set group =>   1
Atom  10B    basis set group =>   1
Atom  11B    basis set group =>   1
---------------------------------
AUXILIARY/J BASIS SET INFORMATION
---------------------------------
There are 1 groups of distinct atoms

 Group   1 Type B   : 8s3p3d contracted to 6s3p3d pattern {311111/111/111}

Atom   0B    basis set group =>   1
Atom   1B    basis set group =>   1
Atom   2B    basis set group =>   1
Atom   3B    basis set group =>   1
Atom   4B    basis set group =>   1
Atom   5B    basis set group =>   1
Atom   6B    basis set group =>   1
Atom   7B    basis set group =>   1
Atom   8B    basis set group =>   1
Atom   9B    basis set group =>   1
Atom  10B    basis set group =>   1
Atom  11B    basis set group =>   1


           ************************************************************
           *        Program running with 8 parallel MPI-processes     *
           *              working on a common directory               *
           ************************************************************
------------------------------------------------------------------------------
                             ORCA STARTUP CALCULATIONS
                           -- RI-GTO INTEGRALS CHOSEN --
------------------------------------------------------------------------------
------------------------------------------------------------------------------
                   ___                                                        
                  /   \      - P O W E R E D   B Y -                         
                 /     \                                                     
                 |  |  |   _    _      __       _____    __    __             
                 |  |  |  | |  | |    /  \     |  _  \  |  |  /  |          
                  \  \/   | |  | |   /    \    | | | |  |  | /  /          
                 / \  \   | |__| |  /  /\  \   | |_| |  |  |/  /          
                |  |  |   |  __  | /  /__\  \  |    /   |      \           
                |  |  |   | |  | | |   __   |  |    \   |  |\   \          
                \     /   | |  | | |  |  |  |  | |\  \  |  | \   \       
                 \___/    |_|  |_| |__|  |__|  |_| \__\ |__|  \__/        
                                                                              
                      - O R C A' S   B I G   F R I E N D -                    
                                      &                                       
                       - I N T E G R A L  F E E D E R -                       
                                                                              
 v1 FN, 2020, v2 2021, v3 2022-2024                                           
------------------------------------------------------------------------------


----------------------
SHARK INTEGRAL PACKAGE
----------------------

Number of atoms                             ...     12
Number of basis functions                   ...    228
Number of shells                            ...    108
Maximum angular momentum                    ...      2
Integral batch strategy                     ... SHARK/LIBINT Hybrid
RI-J (if used) integral strategy            ... SPLIT-RIJ (Revised 2003 algorithm where possible)
Printlevel                                  ...      1
Contraction scheme used                     ... SEGMENTED contraction
Prescreening option                         ... SCHWARTZ
   Thresh                                   ... 2.500e-11
   Tcut                                     ... 2.500e-12
   Tpresel                                  ... 2.500e-12 
Coulomb Range Separation                    ... NOT USED
Exchange Range Separation                   ... NOT USED
Multipole approximations                    ... NOT USED
Finite Nucleus Model                        ... NOT USED
CABS basis                                  ... NOT available
Auxiliary Coulomb fitting basis             ... AVAILABLE
   # of basis functions in Aux-J            ...    360
   # of shells in Aux-J                     ...    144
   Maximum angular momentum in Aux-J        ...      2
Auxiliary J/K fitting basis                 ... NOT available
Auxiliary Correlation fitting basis         ... NOT available
Auxiliary 'external' fitting basis          ... NOT available

Checking pre-screening integrals            ... done (  0.0 sec) Dimension = 108
   => SHARK Basis and OBASIS are compatible. Storing Pre-screening
Shell pair information
Shell pair cut-off parameter TPreSel        ...   2.5e-12
Total number of shell pairs                 ...      5886
Shell pairs after pre-screening             ...      5702
Total number of primitive shell pairs       ...     23700
Primitive shell pairs kept                  ...     16978
          la=0 lb=0:   1662 shell pairs
          la=1 lb=0:   2152 shell pairs
          la=1 lb=1:    666 shell pairs
          la=2 lb=0:    712 shell pairs
          la=2 lb=1:    432 shell pairs
          la=2 lb=2:     78 shell pairs

Checking whether 4 symmetric matrices of dimension 228 fit in memory
:Max Core in MB      =   1500.00
 MB in use           =      7.44
 MB left             =   1492.56
 MB needed           =      0.80
 Data fit in memory  = YES
Calculating RI/J V-Matrix + Cholesky decomp.... done (  0.0 sec)
Calculating Nuclear repulsion               ... done (  0.0 sec) ENN=    381.731248161400 Eh

Diagonalization of the overlap matrix:
Smallest eigenvalue                        ... 3.054e-06
Time for diagonalization                   ...    0.004 sec
Threshold for overlap eigenvalues          ... 1.000e-07
Number of eigenvalues below threshold      ... 0
Time for construction of square roots      ...    0.004 sec
Total time needed                          ...    0.009 sec

-------------------
DFT GRID GENERATION
-------------------

General Integration Accuracy     IntAcc      ... 4.388
Radial Grid Type                 RadialGrid  ... OptM3 with GC (2021)
Angular Grid (max. ang.)         AngularGrid ... 4 (Lebedev-302)
Angular grid pruning method      GridPruning ... 4 (adaptive)
Weight generation scheme         WeightScheme... mBecke (2022)
Basis function cutoff            BFCut       ... 1.0000e-11
Integration weight cutoff        WCut        ... 1.0000e-14
Partially contracted basis set               ... off
Rotationally invariant grid construction     ... off
Angular grids for H and He will be reduced by one unit

Total number of grid points                  ...    69970
Total number of batches                      ...     1100
Average number of points per batch           ...       63
Average number of grid points per atom       ...     5831
Grids setup in   0.4 sec
Initializing property integral containers    ... done (  0.1 sec)

SHARK setup successfully completed in   0.6 seconds

Maximum memory used throughout the entire STARTUP-calculation: 20.5 MB


           ************************************************************
           *        Program running with 8 parallel MPI-processes     *
           *              working on a common directory               *
           ************************************************************
-------------------------------------------------------------------------------
                                 ORCA GUESS
                   Start orbitals & Density for SCF / CASSCF
-------------------------------------------------------------------------------

------------
SCF SETTINGS
------------
Hamiltonian:
 Density Functional     Method          .... DFT(GTOs)
  Functional kind                       .... Exchange
  Functional name                       .... Re-regularized SCAN exchange by Furness et al
  Functional family                     .... MGGA
  Functional refs                              
    [ 0] J. W. Furness, A. D. Kaplan, J. Ning, J. P. Perdew, and J. Sun.,  J. Phys. Chem. Lett. 11, 8208-8215 (2020), doi: 10.1021/acs.jpclett.0c02405
    [ 1] J. W. Furness, A. D. Kaplan, J. Ning, J. P. Perdew, and J. Sun.,  J. Phys. Chem. Lett. 11, 9248-9248 (2020), doi: 10.1021/acs.jpclett.0c03077
  Functional external parameters        .... 6
    Parameter  0 _c1        =  6.670000e-01 : c1 parameter        
    Parameter  1 _c2        =  8.000000e-01 : c2 parameter        
    Parameter  2 _d         =  1.240000e+00 : d parameter         
    Parameter  3 _k1        =  6.500000e-02 : k1 parameter        
    Parameter  4 _eta       =  1.000000e-03 : eta parameter       
    Parameter  5 _dp2       =  3.610000e-01 : dp2 parameter       
  Functional kind                       .... Correlation
  Functional name                       .... Re-regularized SCAN correlation by Furness et al
  Functional family                     .... MGGA
  Functional refs                              
    [ 0] J. W. Furness, A. D. Kaplan, J. Ning, J. P. Perdew, and J. Sun.,  J. Phys. Chem. Lett. 11, 8208-8215 (2020), doi: 10.1021/acs.jpclett.0c02405
    [ 1] J. W. Furness, A. D. Kaplan, J. Ning, J. P. Perdew, and J. Sun.,  J. Phys. Chem. Lett. 11, 9248-9248 (2020), doi: 10.1021/acs.jpclett.0c03077
  Functional external parameters        .... 1
    Parameter  0 _eta       =  1.000000e-03 : Regularization parameter
 Gradients option       PostSCFGGA      .... off
 RI-approximation to the Coulomb term is turned on
   Number of AuxJ basis functions       .... 360


General Settings:
 Integral files         IntName         .... b12_hexagonal_prism_m1_spinopt
 Hartree-Fock type      HFTyp           .... RHF
 Total Charge           Charge          ....    0
 Multiplicity           Mult            ....    1
 Number of Electrons    NEL             ....   60
 Basis Dimension        Dim             ....  228
 Nuclear Repulsion      ENuc            ....    381.7312481614 Eh

Convergence Acceleration:
 AO-DIIS                CNVDIIS         .... on
   Start iteration      DIISMaxIt       ....    12
   Startup error        DIISStart       ....  0.200000
   # of expansion vecs  DIISMaxEq       ....     5
   Bias factor          DIISBfac        ....   1.050
   Max. coefficient     DIISMaxC        ....  10.000
 MO-DIIS                CNVKDIIS        .... off
 Trust-Rad. Augm. Hess. CNVTRAH         .... auto
   Auto Start mean grad. ratio tolernc. ....  1.125000
   Auto Start start iteration           ....    50
   Auto Start num. interpolation iter.  ....    10
   Max. Number of Micro iterations      ....    24
   Max. Number of Macro iterations      .... Maxiter - #DIIS iter
   Number of Davidson start vectors     ....     2
   Converg. threshold    (grad. norm)   ....   1.000e-05
   Grad. Scal. Fac. for Micro threshold ....   0.100
   Minimum threshold for Micro iter.    ....   1.000e-02
   NR start threshold (gradient norm)   ....   1.000e-04
   Initial trust radius                 ....   0.400
   Minimum AH scaling param. (alpha)    ....   1.000
   Maximum AH scaling param. (alpha)    .... 1000.000
   Quad. conv. algorithm                .... NR
   White noise on init. David. guess    .... on
   Maximum white noise                  ....   0.010
   Pseudo random numbers                .... off
   Inactive MOs                         .... canonical
   Orbital update algorithm             .... Taylor
   Preconditioner                       .... Diag
   Full preconditioner red. dimension   ....   250
   COSX micro iterations for RIJONX calc.... off
 SOSCF                 CNVSOSCF           .... on
   Start iteration     SOSCFMaxIt         ....   150
   Startup grad/error  SOSCFStart         ....  0.003300
   Hessian update      SOSCFHessUp        .... L-BFGS
   Autom. constraints  SOSCFAutoConstrain .... off
 Level Shifting         CNVShift        .... on
   Level shift para.    LevelShift      ....    0.2500
   Turn off err/grad.   ShiftErr        ....    0.0010
 Zerner damping         CNVZerner       .... off
 Static damping         CNVDamp         .... on
   Fraction old density DampFac         ....    0.7000
   Max. Damping (<1)    DampMax         ....    0.9800
   Min. Damping (>=0)   DampMin         ....    0.0000
   Turn off err/grad.   DampErr         ....    0.1000

SCF Procedure:
 Maximum # iterations   MaxIter         ....   125
 SCF integral mode      SCFMode         .... Direct
   Integral package                     .... SHARK and LIBINT hybrid scheme
 Reset frequency        DirectResetFreq ....    20
 Integral Threshold     Thresh          ....  2.500e-11 Eh
 Primitive CutOff       TCut            ....  2.500e-12 Eh

Convergence Tolerance:
 Convergence Check Mode ConvCheckMode   .... Total+1el-Energy
 Convergence forced     ConvForced      .... 0
 Energy Change          TolE            ....  1.000e-08 Eh
 1-El. energy change                    ....  1.000e-05 Eh
 Orbital Gradient       TolG            ....  1.000e-05
 Orbital Rotation angle TolX            ....  1.000e-05
 DIIS Error             TolErr          ....  5.000e-07

------------------------------
INITIAL GUESS: MODEL POTENTIAL
------------------------------
Loading Hartree-Fock densities                     ... done
Calculating cut-offs                               ... done
Initializing the effective Hamiltonian             ... done
Setting up the integral package (SHARK)            ... done
Starting the Coulomb interaction                   ... done (   0.0 sec)
Making the grid                                    ... done (   0.1 sec)
Mapping shells                                     ... done
Starting the XC term evaluation                    ... done (   0.1 sec)
  promolecular density results
     # of electrons  =     60.010783593
     EX              =    -45.853047489
     EC              =     -1.915077619
     EX+EC           =    -47.768125107
Transforming the Hamiltonian                       ... done (   0.0 sec)
Diagonalizing the Hamiltonian                      ... done (   0.0 sec)
Back transforming the eigenvectors                 ... done (   0.0 sec)
Now organizing SCF variables                       ... done
                      ------------------
                      INITIAL GUESS DONE (   0.2 sec)
                      ------------------
             **** ENERGY FILE WAS UPDATED (b12_hexagonal_prism_m1_spinopt.en.tmp) ****
Finished Guess after   0.3 sec
Maximum memory used throughout the entire GUESS-calculation: 10.9 MB


           ************************************************************
           *        Program running with 8 parallel MPI-processes     *
           *              working on a common directory               *
           ************************************************************

-------------------------------------------------------------------------------------------
                                      ORCA LEAN-SCF
                              memory conserving SCF solver
-------------------------------------------------------------------------------------------

----------------------------------------D-I-I-S--------------------------------------------
Iteration    Energy (Eh)           Delta-E    RMSDP     MaxDP     DIISErr   Damp  Time(sec)
-------------------------------------------------------------------------------------------
               ***  Starting incremental Fock matrix formation  ***
    1    -297.3039661602648493     0.00e+00  2.16e-01  2.36e+00  1.51e-01  0.700   0.6
Warning: op=0 Small HOMO/LUMO gap (   0.039) - skipping pre-diagonalization
         Will do a full diagonalization
    2    -297.5502890427495686    -2.46e-01  1.75e-01  2.01e+00  6.99e-02  0.700   0.6
                               ***Turning on AO-DIIS***
    3    -297.6351257831200883    -8.48e-02  7.96e-02  1.02e+00  2.54e-02  0.700   0.5
    4    -297.6834565580300023    -4.83e-02  1.16e-01  1.61e+00  1.27e-02  0.000   0.5
    5    -297.7963273789737286    -1.13e-01  9.38e-03  1.06e-01  9.59e-03  0.000   0.5
                              *** Initializing SOSCF ***
---------------------------------------S-O-S-C-F--------------------------------------
Iteration    Energy (Eh)           Delta-E    RMSDP     MaxDP     MaxGrad    Time(sec)
--------------------------------------------------------------------------------------
    6    -297.7989596511856689    -2.63e-03  5.08e-03  7.08e-02  2.88e-03     0.6
               *** Restarting incremental Fock matrix formation ***
    7    -297.7992733963368437    -3.14e-04  8.62e-03  1.12e-01  9.49e-04     0.6
    8    -297.7992942114044581    -2.08e-05  4.92e-03  6.03e-02  9.06e-04     0.5
    9    -297.7993244840436091    -3.03e-05  7.65e-04  7.87e-03  2.43e-04     0.4
   10    -297.7993222866913356     2.20e-06  1.50e-03  1.67e-02  3.60e-04     0.5
   11    -297.7993269231772047    -4.64e-06  2.79e-04  3.33e-03  4.44e-05     0.5
   12    -297.7993269054688881     1.77e-08  2.43e-04  3.16e-03  5.08e-05     0.4
   13    -297.7993270629567633    -1.57e-07  8.65e-04  1.10e-02  5.02e-06     0.4
   14    -297.7993270584887568     4.47e-09  8.71e-05  1.51e-03  1.46e-05     0.4
                 **** Energy Check signals convergence ****

               *****************************************************
               *                     SUCCESS                       *
               *           SCF CONVERGED AFTER  14 CYCLES          *
               *****************************************************

             **** ENERGY FILE WAS UPDATED (b12_hexagonal_prism_m1_spinopt.en.tmp) ****

----------------
TOTAL SCF ENERGY
----------------

Total Energy       :       -297.79932706159593 Eh           -8103.53166 eV

Components:
Nuclear Repulsion  :        381.73124816139978 Eh           10387.43535 eV
Electronic Energy  :       -679.53057522299571 Eh          -18490.96701 eV
One Electron Energy:      -1152.07608697581441 Eh          -31349.58411 eV
Two Electron Energy:        472.54551175281870 Eh           12858.61709 eV

Virial components:
Potential Energy   :       -594.16628307486985 Eh          -16168.08653 eV
Kinetic Energy     :        296.36695601327392 Eh            8064.55487 eV
Virial Ratio       :          2.00483309970717

DFT components:
N(Alpha)           :       29.999940385409 electrons
N(Beta)            :       29.999940385409 electrons
N(Total)           :       59.999880770819 electrons
E(X)               :      -46.827416178729 Eh       
E(C)               :       -1.913638670370 Eh       
E(XC)              :      -48.741054849099 Eh       

---------------
SCF CONVERGENCE
---------------

  Last Energy change         ...   -4.4680e-09  Tolerance :   1.0000e-08
  Last MAX-Density change    ...    1.5126e-03  Tolerance :   1.0000e-07
  Last RMS-Density change    ...    8.7117e-05  Tolerance :   5.0000e-09
  Last DIIS Error            ...    2.8757e-03  Tolerance :   5.0000e-07
  Last Orbital Gradient      ...    1.4601e-05  Tolerance :   1.0000e-05
  Last Orbital Rotation      ...    1.9403e-05  Tolerance :   1.0000e-05


----------------
ORBITAL ENERGIES
----------------

  NO   OCC          E(Eh)            E(eV) 
   0   2.0000      -6.678778      -181.7388 
   1   2.0000      -6.678756      -181.7382 
   2   2.0000      -6.678736      -181.7377 
   3   2.0000      -6.678730      -181.7375 
   4   2.0000      -6.662216      -181.2881 
   5   2.0000      -6.662199      -181.2877 
   6   2.0000      -6.662173      -181.2870 
   7   2.0000      -6.662165      -181.2867 
   8   2.0000      -6.660661      -181.2458 
   9   2.0000      -6.660657      -181.2457 
  10   2.0000      -6.660317      -181.2364 
  11   2.0000      -6.660315      -181.2364 
  12   2.0000      -0.791304       -21.5325 
  13   2.0000      -0.717282       -19.5182 
  14   2.0000      -0.573232       -15.5984 
  15   2.0000      -0.573164       -15.5966 
  16   2.0000      -0.530436       -14.4339 
  17   2.0000      -0.456711       -12.4277 
  18   2.0000      -0.456679       -12.4269 
  19   2.0000      -0.375172       -10.2089 
  20   2.0000      -0.358505        -9.7554 
  21   2.0000      -0.345414        -9.3992 
  22   2.0000      -0.344651        -9.3784 
  23   2.0000      -0.338176        -9.2022 
  24   2.0000      -0.338135        -9.2011 
  25   2.0000      -0.314951        -8.5703 
  26   2.0000      -0.289629        -7.8812 
  27   2.0000      -0.243872        -6.6361 
  28   2.0000      -0.216610        -5.8943 
  29   2.0000      -0.216578        -5.8934 
  30   0.0000      -0.168201        -4.5770 
  31   0.0000      -0.108302        -2.9471 
  32   0.0000      -0.108240        -2.9454 
  33   0.0000      -0.075104        -2.0437 
  34   0.0000      -0.057721        -1.5707 
  35   0.0000      -0.057582        -1.5669 
  36   0.0000      -0.057335        -1.5602 
  37   0.0000      -0.017157        -0.4669 
  38   0.0000      -0.017120        -0.4659 
  39   0.0000      -0.011163        -0.3038 
  40   0.0000       0.001512         0.0412 
*Only the first 10 virtual orbitals were printed.

                    ********************************
                    * MULLIKEN POPULATION ANALYSIS *
                    ********************************

-----------------------
MULLIKEN ATOMIC CHARGES
-----------------------
   0 B :    0.178384
   1 B :   -0.637364
   2 B :    0.458935
   3 B :    0.179084
   4 B :   -0.637609
   5 B :    0.458965
   6 B :    0.177754
   7 B :    0.459245
   8 B :   -0.637485
   9 B :    0.178039
  10 B :    0.459408
  11 B :   -0.637356
Sum of atomic charges:    0.0000000

--------------------------------
MULLIKEN REDUCED ORBITAL CHARGES
--------------------------------
  0 B s       :     2.469810  s :     2.469810
      pz      :     0.736635  p :     2.311322
      px      :     0.837957
      py      :     0.736731
      dz2     :     0.008700  d :     0.040484
      dxz     :     0.008990
      dyz     :     0.004404
      dx2y2   :     0.009410
      dxy     :     0.008979

  1 B s       :     3.636149  s :     3.636149
      pz      :     0.533030  p :     1.968290
      px      :     0.902179
      py      :     0.533081
      dz2     :     0.007880  d :     0.032925
      dxz     :     0.006739
      dyz     :     0.003218
      dx2y2   :     0.008355
      dxy     :     0.006733

  2 B s       :     2.384691  s :     2.384691
      pz      :     0.650164  p :     2.114824
      px      :     0.815196
      py      :     0.649464
      dz2     :     0.009939  d :     0.041550
      dxz     :     0.006907
      dyz     :     0.008019
      dx2y2   :     0.009799
      dxy     :     0.006886

  3 B s       :     2.469104  s :     2.469104
      pz      :     0.736710  p :     2.311326
      px      :     0.837806
      py      :     0.736810
      dz2     :     0.008704  d :     0.040486
      dxz     :     0.008990
      dyz     :     0.004407
      dx2y2   :     0.009409
      dxy     :     0.008976

  4 B s       :     3.636824  s :     3.636824
      pz      :     0.532847  p :     1.967864
      px      :     0.901920
      py      :     0.533097
      dz2     :     0.007877  d :     0.032921
      dxz     :     0.006742
      dyz     :     0.003216
      dx2y2   :     0.008353
      dxy     :     0.006733

  5 B s       :     2.384298  s :     2.384298
      pz      :     0.650605  p :     2.115172
      px      :     0.815090
      py      :     0.649477
      dz2     :     0.009942  d :     0.041565
      dxz     :     0.006913
      dyz     :     0.008026
      dx2y2   :     0.009799
      dxy     :     0.006885

  6 B s       :     2.470135  s :     2.470135
      pz      :     0.736664  p :     2.311629
      px      :     0.838666
      py      :     0.736299
      dz2     :     0.008702  d :     0.040482
      dxz     :     0.008966
      dyz     :     0.004432
      dx2y2   :     0.009402
      dxy     :     0.008980

  7 B s       :     2.383830  s :     2.383830
      pz      :     0.650193  p :     2.115347
      px      :     0.813426
      py      :     0.651728
      dz2     :     0.009946  d :     0.041578
      dxz     :     0.006892
      dyz     :     0.008046
      dx2y2   :     0.009776
      dxy     :     0.006917

  8 B s       :     3.636181  s :     3.636181
      pz      :     0.532864  p :     1.968385
      px      :     0.902611
      py      :     0.532911
      dz2     :     0.007880  d :     0.032918
      dxz     :     0.006749
      dyz     :     0.003204
      dx2y2   :     0.008323
      dxy     :     0.006763

  9 B s       :     2.470429  s :     2.470429
      pz      :     0.736612  p :     2.311061
      px      :     0.838253
      py      :     0.736196
      dz2     :     0.008697  d :     0.040471
      dxz     :     0.008965
      dyz     :     0.004428
      dx2y2   :     0.009401
      dxy     :     0.008981

 10 B s       :     2.383647  s :     2.383647
      pz      :     0.650590  p :     2.115375
      px      :     0.813180
      py      :     0.651605
      dz2     :     0.009941  d :     0.041570
      dxz     :     0.006897
      dyz     :     0.008044
      dx2y2   :     0.009772
      dxy     :     0.006916

 11 B s       :     3.635848  s :     3.635848
      pz      :     0.532896  p :     1.968581
      px      :     0.902826
      py      :     0.532859
      dz2     :     0.007877  d :     0.032927
      dxz     :     0.006755
      dyz     :     0.003204
      dx2y2   :     0.008325
      dxy     :     0.006766



                     *******************************
                     * LOEWDIN POPULATION ANALYSIS *
                     *******************************

----------------------
LOEWDIN ATOMIC CHARGES
----------------------
   0 B :   -0.059616
   1 B :    0.049793
   2 B :    0.010026
   3 B :   -0.059782
   4 B :    0.049848
   5 B :    0.009911
   6 B :   -0.059774
   7 B :    0.009741
   8 B :    0.049889
   9 B :   -0.059700
  10 B :    0.009773
  11 B :    0.049891

-------------------------------
LOEWDIN REDUCED ORBITAL CHARGES
-------------------------------
  0 B s       :     2.678261  s :     2.678261
      pz      :     0.826765  p :     2.303152
      px      :     0.649421
      py      :     0.826966
      dz2     :     0.016789  d :     0.078203
      dxz     :     0.017430
      dyz     :     0.008544
      dx2y2   :     0.018008
      dxy     :     0.017432

  1 B s       :     2.748634  s :     2.748634
      pz      :     0.598858  p :     2.136846
      px      :     0.939112
      py      :     0.598875
      dz2     :     0.014776  d :     0.064726
      dxz     :     0.013879
      dyz     :     0.006311
      dx2y2   :     0.015898
      dxy     :     0.013863

  2 B s       :     2.675679  s :     2.675679
      pz      :     0.726929  p :     2.235772
      px      :     0.782507
      py      :     0.726336
      dz2     :     0.018975  d :     0.078523
      dxz     :     0.013410
      dyz     :     0.013790
      dx2y2   :     0.018978
      dxy     :     0.013371

  3 B s       :     2.678214  s :     2.678214
      pz      :     0.826750  p :     2.303361
      px      :     0.649551
      py      :     0.827060
      dz2     :     0.016800  d :     0.078207
      dxz     :     0.017426
      dyz     :     0.008549
      dx2y2   :     0.018006
      dxy     :     0.017427

  4 B s       :     2.748704  s :     2.748704
      pz      :     0.598748  p :     2.136731
      px      :     0.939026
      py      :     0.598957
      dz2     :     0.014765  d :     0.064717
      dxz     :     0.013889
      dyz     :     0.006308
      dx2y2   :     0.015894
      dxy     :     0.013862

  5 B s       :     2.675622  s :     2.675622
      pz      :     0.727285  p :     2.235914
      px      :     0.782368
      py      :     0.726261
      dz2     :     0.018983  d :     0.078554
      dxz     :     0.013422
      dyz     :     0.013804
      dx2y2   :     0.018975
      dxy     :     0.013370

  6 B s       :     2.678198  s :     2.678198
      pz      :     0.826700  p :     2.303371
      px      :     0.650517
      py      :     0.826153
      dz2     :     0.016800  d :     0.078205
      dxz     :     0.017384
      dyz     :     0.008592
      dx2y2   :     0.018057
      dxy     :     0.017372

  7 B s       :     2.675522  s :     2.675522
      pz      :     0.727260  p :     2.236156
      px      :     0.780674
      py      :     0.728222
      dz2     :     0.018990  d :     0.078581
      dxz     :     0.013383
      dyz     :     0.013847
      dx2y2   :     0.018933
      dxy     :     0.013428

  8 B s       :     2.748765  s :     2.748765
      pz      :     0.598605  p :     2.136635
      px      :     0.939275
      py      :     0.598755
      dz2     :     0.014764  d :     0.064711
      dxz     :     0.013910
      dyz     :     0.006283
      dx2y2   :     0.015828
      dxy     :     0.013926

  9 B s       :     2.678297  s :     2.678297
      pz      :     0.826712  p :     2.303218
      px      :     0.650474
      py      :     0.826032
      dz2     :     0.016783  d :     0.078184
      dxz     :     0.017388
      dyz     :     0.008587
      dx2y2   :     0.018057
      dxy     :     0.017370

 10 B s       :     2.675551  s :     2.675551
      pz      :     0.727467  p :     2.236110
      px      :     0.780440
      py      :     0.728203
      dz2     :     0.018982  d :     0.078566
      dxz     :     0.013390
      dyz     :     0.013842
      dx2y2   :     0.018927
      dxy     :     0.013424

 11 B s       :     2.748714  s :     2.748714
      pz      :     0.598665  p :     2.136665
      px      :     0.939297
      py      :     0.598704
      dz2     :     0.014760  d :     0.064730
      dxz     :     0.013921
      dyz     :     0.006283
      dx2y2   :     0.015830
      dxy     :     0.013935



                      *****************************
                      * MAYER POPULATION ANALYSIS *
                      *****************************

  NA   - Mulliken gross atomic population
  ZA   - Total nuclear charge
  QA   - Mulliken gross atomic charge
  VA   - Mayer's total valence
  BVA  - Mayer's bonded valence
  FA   - Mayer's free valence

  ATOM       NA         ZA         QA         VA         BVA        FA
  0 B      4.8216     5.0000     0.1784     3.8747     3.8747     0.0000
  1 B      5.6374     5.0000    -0.6374     4.1763     4.1763     0.0000
  2 B      4.5411     5.0000     0.4589     2.4867     2.4867     0.0000
  3 B      4.8209     5.0000     0.1791     3.8732     3.8732    -0.0000
  4 B      5.6376     5.0000    -0.6376     4.1752     4.1752     0.0000
  5 B      4.5410     5.0000     0.4590     2.4864     2.4864    -0.0000
  6 B      4.8222     5.0000     0.1778     3.8773     3.8773    -0.0000
  7 B      4.5408     5.0000     0.4592     2.4842     2.4842    -0.0000
  8 B      5.6375     5.0000    -0.6375     4.1747     4.1747     0.0000
  9 B      4.8220     5.0000     0.1780     3.8762     3.8762    -0.0000
 10 B      4.5406     5.0000     0.4594     2.4844     2.4844     0.0000
 11 B      5.6374     5.0000    -0.6374     4.1751     4.1751    -0.0000

  Mayer bond orders larger than 0.100000
B(  0-B ,  1-B ) :   1.7770 B(  0-B ,  2-B ) :  -0.5373 B(  0-B ,  3-B ) :   0.5180 
B(  0-B ,  4-B ) :   0.1577 B(  0-B ,  5-B ) :   0.5481 B(  0-B ,  6-B ) :   0.2997 
B(  0-B ,  7-B ) :   0.5480 B(  0-B ,  8-B ) :   0.1571 B(  0-B ,  9-B ) :   0.5174 
B(  0-B , 10-B ) :  -0.5585 B(  0-B , 11-B ) :   0.4474 B(  1-B ,  2-B ) :   0.5184 
B(  1-B ,  3-B ) :   0.1569 B(  1-B ,  4-B ) :   0.5490 B(  1-B ,  5-B ) :  -0.1692 
B(  1-B ,  6-B ) :   0.4486 B(  1-B ,  7-B ) :  -0.1694 B(  1-B ,  8-B ) :   0.5490 
B(  1-B ,  9-B ) :   0.1574 B(  1-B , 10-B ) :  -0.1115 B(  1-B , 11-B ) :   0.4700 
B(  2-B ,  3-B ) :   0.5485 B(  2-B ,  4-B ) :  -0.1686 B(  2-B ,  5-B ) :   0.8254 
B(  2-B ,  6-B ) :  -0.5588 B(  2-B ,  7-B ) :   0.8257 B(  2-B ,  8-B ) :  -0.1689 
B(  2-B ,  9-B ) :   0.5487 B(  2-B , 10-B ) :   0.7648 B(  2-B , 11-B ) :  -0.1112 
B(  3-B ,  4-B ) :   1.7751 B(  3-B ,  5-B ) :  -0.5373 B(  3-B ,  6-B ) :   0.5182 
B(  3-B ,  7-B ) :  -0.5587 B(  3-B ,  8-B ) :   0.4471 B(  3-B ,  9-B ) :   0.3004 
B(  3-B , 10-B ) :   0.5483 B(  3-B , 11-B ) :   0.1568 B(  4-B ,  5-B ) :   0.5179 
B(  4-B ,  6-B ) :   0.1579 B(  4-B ,  7-B ) :  -0.1117 B(  4-B ,  8-B ) :   0.4704 
B(  4-B ,  9-B ) :   0.4476 B(  4-B , 10-B ) :  -0.1692 B(  4-B , 11-B ) :   0.5491 
B(  5-B ,  6-B ) :   0.5488 B(  5-B ,  7-B ) :   0.7653 B(  5-B ,  8-B ) :  -0.1115 
B(  5-B ,  9-B ) :  -0.5580 B(  5-B , 10-B ) :   0.8257 B(  5-B , 11-B ) :  -0.1688 
B(  6-B ,  7-B ) :   0.5479 B(  6-B ,  8-B ) :   0.1576 B(  6-B ,  9-B ) :   0.5180 
B(  6-B , 10-B ) :  -0.5372 B(  6-B , 11-B ) :   1.7766 B(  7-B ,  8-B ) :   0.5171 
B(  7-B ,  9-B ) :  -0.5367 B(  7-B , 10-B ) :   0.8257 B(  7-B , 11-B ) :  -0.1690 
B(  8-B ,  9-B ) :   1.7763 B(  8-B , 10-B ) :  -0.1690 B(  8-B , 11-B ) :   0.5495 
B(  9-B , 10-B ) :   0.5477 B(  9-B , 11-B ) :   0.1573 B( 10-B , 11-B ) :   0.5175 


-------
TIMINGS
-------

Total SCF time: 0 days 0 hours 0 min 7 sec 

Total time                  ....       7.661 sec
Sum of individual times     ....       7.216 sec  ( 94.2%)

SCF preparation             ....       0.098 sec  (  1.3%)
Fock matrix formation       ....       5.970 sec  ( 77.9%)
  Startup                   ....       0.038 sec  (  0.6% of F)
  Split-RI-J                ....       0.848 sec  ( 14.2% of F)
  XC integration            ....       5.069 sec  ( 84.9% of F)
    Basis function eval.    ....       0.602 sec  ( 11.9% of XC)
    Density eval.           ....       1.606 sec  ( 31.7% of XC)
    XC-Functional eval.     ....       0.145 sec  (  2.9% of XC)
    XC-Potential eval.      ....       2.063 sec  ( 40.7% of XC)
Diagonalization             ....       0.000 sec  (  0.0%)
Density matrix formation    ....       0.289 sec  (  3.8%)
Total Energy calculation    ....       0.125 sec  (  1.6%)
Population analysis         ....       0.053 sec  (  0.7%)
Orbital Transformation      ....       0.055 sec  (  0.7%)
Orbital Orthonormalization  ....       0.000 sec  (  0.0%)
DIIS solution               ....       0.252 sec  (  3.3%)
SOSCF solution              ....       0.374 sec  (  4.9%)
Finished LeanSCF after   7.8 sec

Maximum memory used throughout the entire LEANSCF-calculation: 13.2 MB


-------------------------------------------------------------------------------
                          DFT DISPERSION CORRECTION                            
                                                                               
                                DFTD4 V3.4.0                                   
-------------------------------------------------------------------------------
The R2SCAN3C composite method is recognized
Using three-body term ABC
Active option DFTDOPT                   ...         5   

-------------------------   ----------------
Dispersion correction           -0.005923073
-------------------------   ----------------

------------------   -----------------
gCP correction             0.010841455
------------------   -----------------

-------------------------   --------------------
FINAL SINGLE POINT ENERGY      -297.794408679930
-------------------------   --------------------



           ************************************************************
           *        Program running with 8 parallel MPI-processes     *
           *              working on a common directory               *
           ************************************************************
------------------------------------------------------------------------------
                         ORCA SCF GRADIENT CALCULATION
------------------------------------------------------------------------------

Nuc. rep. gradient        (SHARK) ... done (  0.0 sec)
HCore & Overlap gradient  (SHARK) ... done (  0.0 sec)
Split-RIJ-J gradient      (SHARK) ... done (  0.2 sec)
XC gradient                       ... done (  0.9 sec)
Dispersion correction             ... done (  0.0 sec)

-------------------
DISPERSION GRADIENT
-------------------

   1   B   :    0.000069278    0.000015405    0.000015600
   2   B   :    0.000022797    0.000005840    0.000005982
   3   B   :   -0.000023206    0.000003197    0.000003364
   4   B   :   -0.000069266   -0.000015403    0.000015642
   5   B   :   -0.000022750   -0.000005991    0.000006141
   6   B   :    0.000023167   -0.000003083    0.000003267
   7   B   :    0.000069168   -0.000015833   -0.000015637
   8   B   :    0.000023204    0.000003216   -0.000003039
   9   B   :   -0.000022657    0.000006446   -0.000006358
  10   B   :   -0.000069181    0.000015833   -0.000015591
  11   B   :   -0.000023250   -0.000003315   -0.000003119
  12   B   :    0.000022697   -0.000006312   -0.000006252

Difference to translation invariance:
           :   -0.0000000000    0.0000000000    0.0000000000

Difference to rotation invariance:
           :   -0.0000000000   -0.0000000000   -0.0000000000

Norm of the Dispersion gradient    ...    0.0001603914
RMS gradient                       ...    0.0000267319
MAX gradient                       ...    0.0000692776
gCP correction                   ... done

[...]
      py      :     0.532859
      dz2     :     0.007877  d :     0.032926
      dxz     :     0.006755
      dyz     :     0.003204
      dx2y2   :     0.008325
      dxy     :     0.006766



                     *******************************
                     * LOEWDIN POPULATION ANALYSIS *
                     *******************************

----------------------
LOEWDIN ATOMIC CHARGES
----------------------
   0 B :   -0.059620
   1 B :    0.049775
   2 B :    0.009993
   3 B :   -0.059766
   4 B :    0.049835
   5 B :    0.009908
   6 B :   -0.059759
   7 B :    0.009745
   8 B :    0.049911
   9 B :   -0.059710
  10 B :    0.009776
  11 B :    0.049911

-------------------------------
LOEWDIN REDUCED ORBITAL CHARGES
-------------------------------
  0 B s       :     2.678240  s :     2.678240
      pz      :     0.826751  p :     2.303171
      px      :     0.649434
      py      :     0.826986
      dz2     :     0.016791  d :     0.078209
      dxz     :     0.017431
      dyz     :     0.008545
      dx2y2   :     0.018009
      dxy     :     0.017433

  1 B s       :     2.748635  s :     2.748635
      pz      :     0.598855  p :     2.136860
      px      :     0.939116
      py      :     0.598889
      dz2     :     0.014776  d :     0.064730
      dxz     :     0.013880
      dyz     :     0.006312
      dx2y2   :     0.015899
      dxy     :     0.013864

  2 B s       :     2.675652  s :     2.675652
      pz      :     0.726964  p :     2.235819
      px      :     0.782523
      py      :     0.726333
      dz2     :     0.018978  d :     0.078536
      dxz     :     0.013411
      dyz     :     0.013794
      dx2y2   :     0.018981
      dxy     :     0.013372

  3 B s       :     2.678198  s :     2.678198
      pz      :     0.826725  p :     2.303355
      px      :     0.649562
      py      :     0.827068
      dz2     :     0.016801  d :     0.078213
      dxz     :     0.017427
      dyz     :     0.008550
      dx2y2   :     0.018006
      dxy     :     0.017429

  4 B s       :     2.748693  s :     2.748693
      pz      :     0.598750  p :     2.136750
      px      :     0.939051
      py      :     0.598949
      dz2     :     0.014765  d :     0.064723
      dxz     :     0.013890
      dyz     :     0.006309
      dx2y2   :     0.015896
      dxy     :     0.013863

  5 B s       :     2.675612  s :     2.675612
      pz      :     0.727292  p :     2.235922
      px      :     0.782358
      py      :     0.726272
      dz2     :     0.018983  d :     0.078558
      dxz     :     0.013422
      dyz     :     0.013805
      dx2y2   :     0.018977
      dxy     :     0.013370

  6 B s       :     2.678196  s :     2.678196
      pz      :     0.826686  p :     2.303357
      px      :     0.650511
      py      :     0.826159
      dz2     :     0.016800  d :     0.078205
      dxz     :     0.017384
      dyz     :     0.008592
      dx2y2   :     0.018057
      dxy     :     0.017373

  7 B s       :     2.675517  s :     2.675517
      pz      :     0.727250  p :     2.236154
      px      :     0.780685
      py      :     0.728218
      dz2     :     0.018991  d :     0.078584
      dxz     :     0.013384
      dyz     :     0.013848
      dx2y2   :     0.018934
      dxy     :     0.013428

  8 B s       :     2.748752  s :     2.748752
      pz      :     0.598608  p :     2.136622
      px      :     0.939278
      py      :     0.598735
      dz2     :     0.014765  d :     0.064715
      dxz     :     0.013911
      dyz     :     0.006283
      dx2y2   :     0.015828
      dxy     :     0.013928

  9 B s       :     2.678268  s :     2.678268
      pz      :     0.826724  p :     2.303251
      px      :     0.650453
      py      :     0.826074
      dz2     :     0.016786  d :     0.078191
      dxz     :     0.017388
      dyz     :     0.008587
      dx2y2   :     0.018058
      dxy     :     0.017372

 10 B s       :     2.675538  s :     2.675538
      pz      :     0.727448  p :     2.236113
      px      :     0.780451
      py      :     0.728214
      dz2     :     0.018985  d :     0.078573
      dxz     :     0.013390
      dyz     :     0.013845
      dx2y2   :     0.018929
      dxy     :     0.013424

 11 B s       :     2.748720  s :     2.748720
      pz      :     0.598666  p :     2.136641
      px      :     0.939291
      py      :     0.598684
      dz2     :     0.014760  d :     0.064728
      dxz     :     0.013920
      dyz     :     0.006283
      dx2y2   :     0.015829
      dxy     :     0.013935



                      *****************************
                      * MAYER POPULATION ANALYSIS *
                      *****************************

  NA   - Mulliken gross atomic population
  ZA   - Total nuclear charge
  QA   - Mulliken gross atomic charge
  VA   - Mayer's total valence
  BVA  - Mayer's bonded valence
  FA   - Mayer's free valence

  ATOM       NA         ZA         QA         VA         BVA        FA
  0 B      4.8213     5.0000     0.1787     3.8743     3.8743     0.0000
  1 B      5.6377     5.0000    -0.6377     4.1762     4.1762     0.0000
  2 B      4.5407     5.0000     0.4593     2.4854     2.4854    -0.0000
  3 B      4.8211     5.0000     0.1789     3.8741     3.8741     0.0000
  4 B      5.6378     5.0000    -0.6378     4.1754     4.1754     0.0000
  5 B      4.5409     5.0000     0.4591     2.4858     2.4858    -0.0000
  6 B      4.8220     5.0000     0.1780     3.8768     3.8768     0.0000
  7 B      4.5406     5.0000     0.4594     2.4836     2.4836    -0.0000
  8 B      5.6376     5.0000    -0.6376     4.1749     4.1749     0.0000
  9 B      4.8224     5.0000     0.1776     3.8768     3.8768     0.0000
 10 B      4.5403     5.0000     0.4597     2.4835     2.4835    -0.0000
 11 B      5.6376     5.0000    -0.6376     4.1750     4.1750     0.0000

  Mayer bond orders larger than 0.100000
B(  0-B ,  1-B ) :   1.7769 B(  0-B ,  2-B ) :  -0.5376 B(  0-B ,  3-B ) :   0.5184 
B(  0-B ,  4-B ) :   0.1574 B(  0-B ,  5-B ) :   0.5480 B(  0-B ,  6-B ) :   0.2996 
B(  0-B ,  7-B ) :   0.5480 B(  0-B ,  8-B ) :   0.1570 B(  0-B ,  9-B ) :   0.5179 
B(  0-B , 10-B ) :  -0.5588 B(  0-B , 11-B ) :   0.4474 B(  1-B ,  2-B ) :   0.5178 
B(  1-B ,  3-B ) :   0.1571 B(  1-B ,  4-B ) :   0.5494 B(  1-B ,  5-B ) :  -0.1694 
B(  1-B ,  6-B ) :   0.4485 B(  1-B ,  7-B ) :  -0.1696 B(  1-B ,  8-B ) :   0.5493 
B(  1-B ,  9-B ) :   0.1577 B(  1-B , 10-B ) :  -0.1118 B(  1-B , 11-B ) :   0.4703 
B(  2-B ,  3-B ) :   0.5484 B(  2-B ,  4-B ) :  -0.1691 B(  2-B ,  5-B ) :   0.8259 
B(  2-B ,  6-B ) :  -0.5590 B(  2-B ,  7-B ) :   0.8262 B(  2-B ,  8-B ) :  -0.1693 
B(  2-B ,  9-B ) :   0.5485 B(  2-B , 10-B ) :   0.7652 B(  2-B , 11-B ) :  -0.1116 
B(  3-B ,  4-B ) :   1.7758 B(  3-B ,  5-B ) :  -0.5378 B(  3-B ,  6-B ) :   0.5186 
B(  3-B ,  7-B ) :  -0.5592 B(  3-B ,  8-B ) :   0.4475 B(  3-B ,  9-B ) :   0.3001 
B(  3-B , 10-B ) :   0.5482 B(  3-B , 11-B ) :   0.1571 B(  4-B ,  5-B ) :   0.5177 
B(  4-B ,  6-B ) :   0.1577 B(  4-B ,  7-B ) :  -0.1117 B(  4-B ,  8-B ) :   0.4704 
B(  4-B ,  9-B ) :   0.4480 B(  4-B , 10-B ) :  -0.1695 B(  4-B , 11-B ) :   0.5493 
B(  5-B ,  6-B ) :   0.5487 B(  5-B ,  7-B ) :   0.7656 B(  5-B ,  8-B ) :  -0.1116 
B(  5-B ,  9-B ) :  -0.5585 B(  5-B , 10-B ) :   0.8262 B(  5-B , 11-B ) :  -0.1691 
B(  6-B ,  7-B ) :   0.5479 B(  6-B ,  8-B ) :   0.1576 B(  6-B ,  9-B ) :   0.5183 
B(  6-B , 10-B ) :  -0.5375 B(  6-B , 11-B ) :   1.7765 B(  7-B ,  8-B ) :   0.5170 
B(  7-B ,  9-B ) :  -0.5373 B(  7-B , 10-B ) :   0.8263 B(  7-B , 11-B ) :  -0.1693 
B(  8-B ,  9-B ) :   1.7768 B(  8-B , 10-B ) :  -0.1694 B(  8-B , 11-B ) :   0.5497 
B(  9-B , 10-B ) :   0.5477 B(  9-B , 11-B ) :   0.1576 B( 10-B , 11-B ) :   0.5171 


-------
TIMINGS
-------

Total SCF time: 0 days 0 hours 0 min 1 sec 

Total time                  ....       1.878 sec
Sum of individual times     ....       1.509 sec  ( 80.4%)

SCF preparation             ....       0.102 sec  (  5.4%)
Fock matrix formation       ....       1.143 sec  ( 60.9%)
  Startup                   ....       0.008 sec  (  0.7% of F)
  Split-RI-J                ....       0.169 sec  ( 14.8% of F)
  XC integration            ....       1.186 sec  (103.8% of F)
    Basis function eval.    ....       0.136 sec  ( 11.5% of XC)
    Density eval.           ....       0.400 sec  ( 33.7% of XC)
    XC-Functional eval.     ....       0.030 sec  (  2.5% of XC)
    XC-Potential eval.      ....       0.454 sec  ( 38.3% of XC)
Diagonalization             ....       0.000 sec  (  0.0%)
Density matrix formation    ....       0.031 sec  (  1.7%)
Total Energy calculation    ....       0.023 sec  (  1.2%)
Population analysis         ....       0.052 sec  (  2.8%)
Orbital Transformation      ....       0.021 sec  (  1.1%)
Orbital Orthonormalization  ....       0.000 sec  (  0.0%)
DIIS solution               ....       0.041 sec  (  2.2%)
SOSCF solution              ....       0.096 sec  (  5.1%)
Finished LeanSCF after   2.0 sec

Maximum memory used throughout the entire LEANSCF-calculation: 13.2 MB


-------------------------------------------------------------------------------
                          DFT DISPERSION CORRECTION                            
                                                                               
                                DFTD4 V3.4.0                                   
-------------------------------------------------------------------------------
The R2SCAN3C composite method is recognized
Using three-body term ABC
Active option DFTDOPT                   ...         5   

-------------------------   ----------------
Dispersion correction           -0.005923096
-------------------------   ----------------

------------------   -----------------
gCP correction             0.010841717
------------------   -----------------

-------------------------   --------------------
FINAL SINGLE POINT ENERGY      -297.794408835091
-------------------------   --------------------

                                *** OPTIMIZATION RUN DONE ***



           ************************************************************
           *        Program running with 8 parallel MPI-processes     *
           *              working on a common directory               *
           ************************************************************

------------------------------------------------------------------------------
                              ORCA PROPERTY CALCULATIONS
------------------------------------------------------------------------------

GBWName                                 ... b12_hexagonal_prism_m1_spinopt.gbw
Number of atoms                         ...     12
Number of basis functions               ...    228
Max core memory                         ...   1500 MB

Electric properties:
Dipole moment                           ... YES
Quadrupole moment                       ...  NO
Static polarizability (Dipole/Dipole)   ...  NO
Static polarizability (Dipole/Quad.)    ...  NO
Static polarizability (Quad./Quad.)     ...  NO
Static polarizability (Velocity)        ...  NO
Static hyperpolarizability              ...  NO

Atomic electric properties:
Dipole moment                           ...  NO
Quadrupole moment                       ...  NO
Static polarizability                   ...  NO

Choice of electric origin               ... Center of mass
Position of electric origin             ...     0.000000     0.000000    -0.000000

General magnetic properties:
Magnetizability                         ...  NO

EPR properties:
g-Tensor (aka g-matrix)                 ...  NO
Zero-Field splitting spin-orbit         ...  NO
Zero-field splitting spin-spin          ...  NO
Hyperfine couplings                     ...  NO (   0 nuclei)
Quadrupole couplings                    ...  NO (   0 nuclei)
Contact density                         ...  NO (   0 nuclei)

NMR properties:
Chemical shifts                         ...  NO (   0 nuclei)
Spin-rotation constants                 ...  NO (   0 nuclei)
Spin-spin couplings                     ...  NO (   0 nuclei,    0 pairs)

Choice of magnetic origin               ... GIAO
Position of magnetic origin             ...     0.000000     0.000000     0.000000

Properties with geometric perturbations:
SCF Hessian                             ...  NO
IR spectrum                             ...  NO
VCD spectrum                            ...  NO
X-ray spectroscopy properties:
SCF XES/XAS/RIXS spectra                ...  NO

SCF SOC stabilization energy            ...  NO
Diagonal Born-Oppenheimer correction    ...  NO

-------------
DIPOLE MOMENT
-------------

Method             : SCF
Type of density    : Electron Density
Multiplicity       :   1
Irrep              :   0
Energy             :  -297.7993274554225422 Eh
Basis              : AO
                                X                 Y                 Z
Electronic contribution:      0.000090648       0.000138993      -0.000158914
Nuclear contribution   :      0.000000000       0.000000000      -0.000000000
                        -----------------------------------------
Total Dipole Moment    :      0.000090648       0.000138993      -0.000158914
                        -----------------------------------------
Magnitude (a.u.)       :      0.000229760
Magnitude (Debye)      :      0.000584005



--------------------
Rotational spectrum 
--------------------
 
Rotational constants in cm-1:             0.090894             0.054459             0.054455 
Rotational constants in MHz :          2724.941171          1632.639433          1632.510324 

Dipole components along the rotational axes: 
x,y,z [a.u.] :    -0.000090    -0.000138     0.000160 
x,y,z [Debye]:    -0.000229    -0.000350     0.000407 

 

Dipole moment calculation done in   0.0 sec 

Maximum memory used throughout the entire PROP-calculation: 9.5 MB
Converting b12_hexagonal_prism_m1_spinopt.gbw to JSON (see b12_hexagonal_prism_m1_spinopt.2jsonout) ... done

--------------------------------
SUGGESTED CITATIONS FOR THIS RUN
--------------------------------

Below you find a list of papers that are relevant to this ORCA run
We neither can nor want to force you to cite these papers, but we appreciate if you do
You receive ORCA, which is the product of decades of hard work by many enthusiastic individuals, for free
The only thing we kindly ask in return is that you cite our papers,
We deeply appreciate it, if you show your appreciation for ORCA by not just citing the generic ORCA reference.

Please note that relegating all ORCA citations to the supporting information does *not* help us.
SI sections are not indexed - citations you put there will not count into any citation statistics
But we need these citations in order to attract the funding resources that allow us to do what we are doing

Therefore, if you are a happy ORCA user, please consider citing a few of the papers listed below in the main body of your paper

In addition to the list printed below, the program has created the file b12_hexagonal_prism_m1_spinopt.bibtex that contains the list in bibtex format
You can import this file easily into all common literature databanks and citation aid programs

It goes without saying that in many instances, there are alternative algorithms to achieve similar
results as the ones you have gotten from ORCA. It is, of course, also the case that in some instances
ORCA just re-implements algorithms worked out by others. We are fully aware of that and we are also
fully appreciative of our colleagues work. Hence this citation list should not be read as indicating
that the listed papers, which are focused on our own work, are the only ones worth citing. It simply
meant to make it easier for users to cite ORCA specific papers. It is not a substitute for doing your
own literature research and citing the relevant literature in a scientifically appropriate manner.

List of essential papers. We consider these as the minimum necessary citations

  1. Grimme, S.; Hansen, A.; Ehlert, S.; Mewes, J.
     r2SCAN-3c: A 'Swiss army knife' composite electronic-structure method
     J. Chem. Phys. 2021 154 , 064103
     doi.org/10.1063/5.0040021
  2. Neese, F.
     Software update: the ORCA program system, version 6.0
     WIRES Comput. Molec. Sci. 2025 15(1), e70019
     doi.org/10.1002/wcms.70019

List of papers to cite with high priority. The work reported in these papers was absolutely
necessary for this run to complete.
Our perspective: the developers of density functionals and basis sets usually get cited in chemistry papers
Good! But without the algorithms to do something with them, the functionals or basis sets would not do anything.
Hence, in our opinion, the algorithm design and method developments papers are equally worthy of getting cited

  1. Neese, F.
     An improvement of the resolution of the identity approximation for the formation of the Coulomb matrix
     J. Comp. Chem. 2003 24(14), 1740-1747
     doi.org/10.1002/jcc.10318
  2. Caldeweyher, E.; Bannwarth, C.; Grimme, S.
     Extension of the D3 dispersion coefficient model
     J. Chem. Phys. 2017 147 , 034112
     doi.org/10.1063/1.4993215
  3. Lehtola, S.; Steigemann, C.; Oliveira, M.; Marques, M.
     Recent developments in Libxc - A comprehensive library of functionals for density functional theory
     Software X 2018 7 , 
     doi.org/10.1016/j.softx.2017.11.002
  4. Caldeweyher, E.; Ehlert, S.; Hansen, A.; Neugebauer, H.; Spicher, S.; Bannwarth, C.; Grimme, S.
     A generally applicable atomic-charge dependent London dispersion correction
     J. Chem. Phys. 2019 150 , 154122
     doi.org/10.1063/1.5090222
  5. Neese, F.
     The SHARK Integral Generation and Digestion System
     J. Comp. Chem. 2022 44(3), 381
     doi.org/10.1002/jcc.26942

List of suggested additional citations. These are papers that are important in the 'surrounding' of 
of this run, or papers that preceded the highly important papers. If you like your results we are grateful for a citation.

  1. Neese, F.
     The ORCA program system
     WIRES Comput. Molec. Sci. 2012 2(1), 73-78
     doi.org/10.1002/wcms.81
  2. Neese, F.
     Software update: the ORCA program system, version 4.0
     WIRES Comput. Molec. Sci. 2018 8(1), 1-6
     doi.org/10.1002/wcms.1327
  3. Neese, F.; Wennmohs, F.; Becker, U.; Riplinger, C.
     The ORCA quantum chemistry program package
     J. Chem. Phys. 2020 152(22), 224108
     doi.org/10.1063/5.0004608
  4. Neese, F.
     Software update: The ORCA program system—Version 5.0
     WIRES Comput. Molec. Sci. 2022 12(1), e1606
     doi.org/10.1002/wcms.1606

List of optional additional citations

  1. Neese, F.
     Approximate second-order SCF convergence for spin unrestricted wavefunctions
     Chem. Phys. Lett. 2000 325(1-3), 93-98
     doi.org/10.1016/s0009-2614(00)00662-x

Timings for individual modules:

Sum of individual times          ...       13.635 sec (=   0.227 min)
Startup calculation              ...        1.291 sec (=   0.022 min)   9.5 %
SCF iterations                   ...       10.653 sec (=   0.178 min)  78.1 %
Property calculations            ...        0.186 sec (=   0.003 min)   1.4 %
SCF Gradient evaluation          ...        1.449 sec (=   0.024 min)  10.6 %
Geometry relaxation              ...        0.056 sec (=   0.001 min)   0.4 %
                             ****ORCA TERMINATED NORMALLY****
TOTAL RUN TIME: 0 days 0 hours 0 minutes 14 seconds 453 msec
